<LesHouchesEvents version="3.0">
<header>
<!--
#*********************************************************************
#                                                                    *
#                        MadGraph5_aMC@NLO                           *
#                                                                    *
#                           Going Beyond                             *
#                                                                    *
#                   http://madgraph.hep.uiuc.edu                     *
#                   http://madgraph.phys.ucl.ac.be                   *
#                   http://amcatnlo.cern.ch                          *
#                                                                    *
#                     The MadGraph5_aMC@NLO team                     *
#                                                                    *
#....................................................................*
#                                                                    *
# This file contains all the information necessary to reproduce      *
# the events generated:                                              *
#                                                                    *
# 1. software version                                                *
# 2. proc_card          : code generation info including model       *
# 3. param_card         : model primary parameters in the LH format  *
# 4. run_card           : running parameters (collider and cuts)     *
# 5. pythia_card        : present only if pythia has been run        *
# 6. pgs_card           : present only if pgs has been run           *
# 7. delphes_cards      : present only if delphes has been run       *
#                                                                    *
#                                                                    *
#*********************************************************************
-->
<MGVersion>
#2.5.4
</MGVersion>
<MG5ProcCard>
#************************************************************
#*                     MadGraph5_aMC@NLO                    *
#*                                                          *
#*                *                       *                 *
#*                  *        * *        *                   *
#*                    * * * * 5 * * * *                     *
#*                  *        * *        *                   *
#*                *                       *                 *
#*                                                          *
#*                                                          *
#*         VERSION 2.5.4                 2017-03-28         *
#*                                                          *
#*    The MadGraph5_aMC@NLO Development Team - Find us at   *
#*    https://server06.fynu.ucl.ac.be/projects/madgraph     *
#*                                                          *
#************************************************************
#*                                                          *
#*               Command File for MadGraph5_aMC@NLO         *
#*                                                          *
#*     run as ./bin/mg5_aMC  filename                       *
#*                                                          *
#************************************************************
set group_subprocesses Auto
set ignore_six_quark_processes False
set loop_optimized_output True
set loop_color_flows False
set gauge unitary
set complex_mass_scheme False
set max_npoint_for_channel 0
import model sm
define p = g u c d s u~ c~ d~ s~
define j = g u c d s u~ c~ d~ s~
define l+ = e+ mu+
define l- = e- mu-
define vl = ve vm vt
define vl~ = ve~ vm~ vt~
import model ALP_chiral_NDA_UFO
define e = e+ e-
define vel = ve ve~
define w = w+ w-
generate p p > w ax, w > e ve
output ~/Runs/GB@Colliders/Sigs/AP_nopho_newMG_ee
</MG5ProcCard>
<MGProcCard>
#*********************************************************************
#                        MadGraph/MadEvent                           *
#                   http://madgraph.hep.uiuc.edu                     *
#                                                                    *
#                          proc_card.dat                             *
#*********************************************************************
#                                                                    *
#            This Files is generated by MADGRAPH 5                   *
#                                                                    *
# WARNING: This Files is generated for MADEVENT (compatibility issue)*
#          This files is NOT a valid MG4 proc_card.dat               *
#          Running this in MG4 will NEVER reproduce the result of MG5*
#                                                                    *
#*********************************************************************
#*********************************************************************
# Process(es) requested : mg2 input                                  *
#*********************************************************************
# Begin PROCESS # This is TAG. Do not modify this line
p p > w ax , w > e ve           #Process
# Be carefull the coupling are here in MG5 convention
end_coup           # End the couplings input
done               # this tells MG there are no more procs
# End PROCESS  # This is TAG. Do not modify this line
#*********************************************************************
# Model information                                                  *
#*********************************************************************
# Begin MODEL  # This is TAG. Do not modify this line
ALP_chiral_NDA_UFO
# End   MODEL  # This is TAG. Do not modify this line
#*********************************************************************
# Start multiparticle definitions                                    *
#*********************************************************************
# Begin MULTIPARTICLES # This is TAG. Do not modify this line
# End  MULTIPARTICLES # This is TAG. Do not modify this line
</MGProcCard>
<MGRunCard>
#*********************************************************************
#                       MadGraph5_aMC@NLO                            *
#                                                                    *
#                     run_card.dat MadEvent                          *
#                                                                    *
#  This file is used to set the parameters of the run.               *
#                                                                    *
#  Some notation/conventions:                                        *
#                                                                    *
#   Lines starting with a '# ' are info or comments                  *
#                                                                    *
#   mind the format:   value    = variable     ! comment             *
#*********************************************************************
#
#*******************
# Running parameters
#*******************
#
#*********************************************************************
# Tag name for the run (one word)                                    *
#*********************************************************************
tag_1     = run_tag ! name of the run
#*********************************************************************
# Number of events and rnd seed                                      *
# Warning: Do not generate more than 1M events in a single run       *
# If you want to run Pythia, avoid more than 50k events in a run.    *
#*********************************************************************
500000 = nevents ! Number of unweighted events requested
255 = iseed   ! rnd seed (0=assigned automatically=default))
#*********************************************************************
# Collider type and energy                                           *
# lpp: 0=No PDF, 1=proton, -1=antiproton, 2=photon from proton,      *
#                                         3=photon from electron     *
#*********************************************************************
1        = lpp1    ! beam 1 type
1        = lpp2    ! beam 2 type
6500.0     = ebeam1  ! beam 1 total energy in GeV
6500.0     = ebeam2  ! beam 2 total energy in GeV
#*********************************************************************
# Beam polarization from -100 (left-handed) to 100 (right-handed)    *
#*********************************************************************
0.0     = polbeam1 ! beam polarization for beam 1
0.0     = polbeam2 ! beam polarization for beam 2
#*********************************************************************
# PDF CHOICE: this automatically fixes also alpha_s and its evol.    *
#*********************************************************************
nn23lo1    = pdlabel     ! PDF set
230000    = lhaid     ! if pdlabel=lhapdf, this is the lhapdf number
#*********************************************************************
# Renormalization and factorization scales                           *
#*********************************************************************
False = fixed_ren_scale  ! if .true. use fixed ren scale
False        = fixed_fac_scale  ! if .true. use fixed fac scale
91.188  = scale            ! fixed ren scale
91.188  = dsqrt_q2fact1    ! fixed fact scale for pdf1
91.188  = dsqrt_q2fact2    ! fixed fact scale for pdf2
-1 = dynamical_scale_choice ! Choose one of the preselected dynamical choices
1.0  = scalefact        ! scale factor for event-by-event scales
#*********************************************************************
# Type and output format
#*********************************************************************
False     = gridpack  !True = setting up the grid pack
-1.0 = time_of_flight ! threshold (in mm) below which the invariant livetime is not written (-1 means not written)
3.0 = lhe_version       ! Change the way clustering information pass to shower.
True = clusinfo         ! include clustering tag in output
average =  event_norm       ! average/sum. Normalization of the weight in the LHEF
#*********************************************************************
# Matching parameter (MLM only)
#*********************************************************************
0 = ickkw            ! 0 no matching, 1 MLM
1.0 = alpsfact         ! scale factor for QCD emission vx
False = chcluster        ! cluster only according to channel diag
4 = asrwgtflavor     ! highest quark flavor for a_s reweight
False  = auto_ptj_mjj  ! Automatic setting of ptj and mjj if xqcut >0
! (turn off for VBF and single top processes)
0.0   = xqcut   ! minimum kt jet measure between partons
#*********************************************************************
#
#*********************************************************************
# handling of the helicities:
#  0: sum over all helicities
#  1: importance sampling over helicities
#*********************************************************************
0  = nhel          ! using helicities importance sampling or not.
#*********************************************************************
# Generation bias, check the wiki page below for more information:   *
#  'cp3.irmp.ucl.ac.be/projects/madgraph/wiki/LOEventGenerationBias' *
#*********************************************************************
None = bias_module  ! Bias type of bias, [None, ptj_bias, -custom_folder-]
{} = bias_parameters ! Specifies the parameters of the module.
#
#*******************************
# Parton level cuts definition *
#*******************************
#
#
#*********************************************************************
# BW cutoff (M+/-bwcutoff*Gamma) ! Define on/off-shell for "$" and decay
#*********************************************************************
15.0  = bwcutoff      ! (M+/-bwcutoff*Gamma)
#*********************************************************************
# Apply pt/E/eta/dr/mij/kt_durham cuts on decay products or not
# (note that etmiss/ptll/ptheavy/ht/sorted cuts always apply)
#*********************************************************************
False  = cut_decays    ! Cut decay products
#*********************************************************************
# Standard Cuts                                                      *
#*********************************************************************
# Minimum and maximum pt's (for max, -1 means no cut)                *
#*********************************************************************
30.0  = ptj       ! minimum pt for the jets
0.0  = ptb       ! minimum pt for the b
20.0  = pta       ! minimum pt for the photons
20.0  = ptl       ! minimum pt for the charged leptons
600  = misset    ! minimum missing Et (sum of neutrino's momenta)
0.0  = ptheavy   ! minimum pt for one heavy final state
-1.0  = ptjmax    ! maximum pt for the jets
-1.0  = ptbmax    ! maximum pt for the b
-1.0  = ptamax    ! maximum pt for the photons
-1.0  = ptlmax    ! maximum pt for the charged leptons
-1.0 = missetmax ! maximum missing Et (sum of neutrino's momenta)
#*********************************************************************
# Minimum and maximum E's (in the center of mass frame)              *
#*********************************************************************
0.0  = ej     ! minimum E for the jets
0.0  = eb     ! minimum E for the b
0.0  = ea     ! minimum E for the photons
0.0  = el     ! minimum E for the charged leptons
-1.0   = ejmax ! maximum E for the jets
-1.0   = ebmax ! maximum E for the b
-1.0   = eamax ! maximum E for the photons
-1.0   = elmax ! maximum E for the charged leptons
#*********************************************************************
# Maximum and minimum absolute rapidity (for max, -1 means no cut)   *
#*********************************************************************
5.0 = etaj    ! max rap for the jets
-1.0  = etab    ! max rap for the b
2.5  = etaa    ! max rap for the photons
2.5  = etal    ! max rap for the charged leptons
0.0  = etajmin ! min rap for the jets
0.0  = etabmin ! min rap for the b
0.0  = etaamin ! min rap for the photons
0.0  = etalmin ! main rap for the charged leptons
#*********************************************************************
# Minimum and maximum DeltaR distance                                *
#*********************************************************************
0.4 = drjj    ! min distance between jets
0.0   = drbb    ! min distance between b's
0.4 = drll    ! min distance between leptons
0.4 = draa    ! min distance between gammas
0.0   = drbj    ! min distance between b and jet
0.4 = draj    ! min distance between gamma and jet
0.4 = drjl    ! min distance between jet and lepton
0.0   = drab    ! min distance between gamma and b
0.0   = drbl    ! min distance between b and lepton
0.4 = dral    ! min distance between gamma and lepton
-1.0  = drjjmax ! max distance between jets
-1.0  = drbbmax ! max distance between b's
-1.0  = drllmax ! max distance between leptons
-1.0  = draamax ! max distance between gammas
-1.0  = drbjmax ! max distance between b and jet
-1.0  = drajmax ! max distance between gamma and jet
-1.0  = drjlmax ! max distance between jet and lepton
-1.0  = drabmax ! max distance between gamma and b
-1.0  = drblmax ! max distance between b and lepton
-1.0  = dralmax ! maxdistance between gamma and lepton
#*********************************************************************
# Minimum and maximum invariant mass for pairs                       *
# WARNING: for four lepton final state mmll cut require to have      *
#          different lepton masses for each flavor!                  *
#*********************************************************************
0.0   = mmjj    ! min invariant mass of a jet pair
0.0   = mmbb    ! min invariant mass of a b pair
0.0   = mmaa    ! min invariant mass of gamma gamma pair
0.0   = mmll    ! min invariant mass of l+l- (same flavour) lepton pair
-1.0  = mmjjmax ! max invariant mass of a jet pair
-1.0  = mmbbmax ! max invariant mass of a b pair
-1.0  = mmaamax ! max invariant mass of gamma gamma pair
-1.0  = mmllmax ! max invariant mass of l+l- (same flavour) lepton pair
#*********************************************************************
# Minimum and maximum invariant mass for all letpons                 *
#*********************************************************************
0.0   = mmnl    ! min invariant mass for all letpons (l+- and vl)
-1.0  = mmnlmax ! max invariant mass for all letpons (l+- and vl)
#*********************************************************************
# Minimum and maximum pt for 4-momenta sum of leptons                *
#*********************************************************************
0.0   = ptllmin  ! Minimum pt for 4-momenta sum of leptons(l and vl)
-1.0  = ptllmax  ! Maximum pt for 4-momenta sum of leptons(l and vl)
#*********************************************************************
# Inclusive cuts                                                     *
#*********************************************************************
0.0  = xptj ! minimum pt for at least one jet
0.0  = xptb ! minimum pt for at least one b
0.0  = xpta ! minimum pt for at least one photon
0.0  = xptl ! minimum pt for at least one charged lepton
#*********************************************************************
# Control the pt's of the jets sorted by pt                          *
#*********************************************************************
0.0   = ptj1min ! minimum pt for the leading jet in pt
0.0   = ptj2min ! minimum pt for the second jet in pt
0.0   = ptj3min ! minimum pt for the third jet in pt
0.0   = ptj4min ! minimum pt for the fourth jet in pt
-1.0  = ptj1max ! maximum pt for the leading jet in pt
-1.0  = ptj2max ! maximum pt for the second jet in pt
-1.0  = ptj3max ! maximum pt for the third jet in pt
-1.0  = ptj4max ! maximum pt for the fourth jet in pt
0   = cutuse  ! reject event if fails any (0) / all (1) jet pt cuts
#*********************************************************************
# Control the pt's of leptons sorted by pt                           *
#*********************************************************************
0.0   = ptl1min ! minimum pt for the leading lepton in pt
0.0   = ptl2min ! minimum pt for the second lepton in pt
0.0   = ptl3min ! minimum pt for the third lepton in pt
0.0   = ptl4min ! minimum pt for the fourth lepton in pt
-1.0  = ptl1max ! maximum pt for the leading lepton in pt
-1.0  = ptl2max ! maximum pt for the second lepton in pt
-1.0  = ptl3max ! maximum pt for the third lepton in pt
-1.0  = ptl4max ! maximum pt for the fourth lepton in pt
#*********************************************************************
# Control the Ht(k)=Sum of k leading jets                            *
#*********************************************************************
0.0   = htjmin ! minimum jet HT=Sum(jet pt)
-1.0  = htjmax ! maximum jet HT=Sum(jet pt)
0.0   = ihtmin  !inclusive Ht for all partons (including b)
-1.0  = ihtmax  !inclusive Ht for all partons (including b)
0.0   = ht2min ! minimum Ht for the two leading jets
0.0   = ht3min ! minimum Ht for the three leading jets
0.0   = ht4min ! minimum Ht for the four leading jets
-1.0  = ht2max ! maximum Ht for the two leading jets
-1.0  = ht3max ! maximum Ht for the three leading jets
-1.0  = ht4max ! maximum Ht for the four leading jets
#***********************************************************************
# Photon-isolation cuts, according to hep-ph/9801442                   *
# When ptgmin=0, all the other parameters are ignored                  *
# When ptgmin>0, pta and draj are not going to be used                 *
#***********************************************************************
0.0 = ptgmin ! Min photon transverse momentum
0.4 = R0gamma ! Radius of isolation code
1.0 = xn ! n parameter of eq.(3.4) in hep-ph/9801442
1.0 = epsgamma ! epsilon_gamma parameter of eq.(3.4) in hep-ph/9801442
True = isoEM ! isolate photons from EM energy (photons and leptons)
#*********************************************************************
# WBF cuts                                                           *
#*********************************************************************
0.0   = xetamin ! minimum rapidity for two jets in the WBF case
0.0   = deltaeta ! minimum rapidity for two jets in the WBF case
#***********************************************************************
# Turn on either the ktdurham or ptlund cut to activate                *
# CKKW(L) merging with Pythia8 [arXiv:1410.3012, arXiv:1109.4829]      *
#***********************************************************************
-1.0  =  ktdurham
0.4   =  dparameter
-1.0  =  ptlund
1, 2, 3, 4, 5, 6, 21  =  pdgs_for_merging_cut ! PDGs for two cuts above
#*********************************************************************
# maximal pdg code for quark to be considered as a light jet         *
# (otherwise b cuts are applied)                                     *
#*********************************************************************
4 = maxjetflavor    ! Maximum jet pdg code
#*********************************************************************
#
#*********************************************************************
# Store info for systematics studies                                 *
# WARNING: Do not use for interference type of computation           *
#*********************************************************************
True  = use_syst      ! Enable systematics studies
#
#**************************************
# Parameter of the systematics study
#  will be used by SysCalc (if installed)
#**************************************
#
0.5 1 2 = sys_scalefact  # factorization/renormalization scale factor
None = sys_alpsfact  # \alpha_s emission scale factors
auto = sys_matchscale # variation of merging scale
# PDF sets and number of members (0 or none for all members).
NNPDF23_lo_as_0130_qed = sys_pdf # list of pdf sets
# MSTW2008nlo68cl.LHgrid 1  = sys_pdf
#
</MGRunCard>
<slha>
######################################################################
## PARAM_CARD AUTOMATICALY GENERATED BY MG5 FOLLOWING UFO MODEL   ####
######################################################################
##                                                                  ##
##  Width set on Auto will be computed following the information    ##
##        present in the decay.py files of the model.               ##
##        See  arXiv:1402.1178 for more details.                    ##
##                                                                  ##
######################################################################
###################################
## INFORMATION FOR ALPPARS
###################################
Block alppars
1 1.000000e+03 # fa
3 1.000000e+00 # CWtil
4 -0.285843e+00 # CBtil
5 0.000000e+00 # C1
8 0.000000e+00 # C2
16 0.000000e+00 # C6
19 0.000000e+00 # C7
22 0.000000e+00 # C8
###################################
## INFORMATION FOR CKMBLOCK
###################################
Block ckmblock
1 2.277360e-01 # cabi
###################################
## INFORMATION FOR MASS
###################################
Block mass
1 5.040000e-03 # MD
2 2.550000e-03 # MU
3 1.010000e-01 # MS
4 1.270000e+00 # MC
5 4.700000e+00 # MB
6 1.720000e+02 # MT
11 5.110000e-04 # Me
13 1.056600e-01 # MMU
15 1.777000e+00 # MTA
23 9.118760e+01 # MZ
25 1.250000e+02 # MH
9000005 1.000000e-05 # Ma
## Dependent parameters, given by model restrictions.
## Those values should be edited following the
## analytical expression. MG5 ignores those values
## but they are important for interfacing the output of MG5
## to external program such as Pythia.
12 0.000000 # ve : 0.0
14 0.000000 # vm : 0.0
16 0.000000 # vt : 0.0
21 0.000000 # g : 0.0
22 0.000000 # a : 0.0
24 79.824360 # w+ : cmath.sqrt(MZ__exp__2/2. + cmath.sqrt(MZ__exp__4/4. - (aEW*cmath.pi*MZ__exp__2)/(Gf*sqrt__2)))
###################################
## INFORMATION FOR SMINPUTS
###################################
Block sminputs
1 1.279000e+02 # aEWM1
2 1.166370e-05 # Gf
3 1.184000e-01 # aS
###################################
## INFORMATION FOR YUKAWA
###################################
Block yukawa
1 5.040000e-03 # ymdo
2 2.550000e-03 # ymup
3 1.010000e-01 # yms
4 1.270000e+00 # ymc
5 4.700000e+00 # ymb
6 1.720000e+02 # ymt
11 5.110000e-04 # yme
13 1.056600e-01 # ymm
15 1.777000e+00 # ymtau
###################################
## INFORMATION FOR DECAY
###################################
DECAY   6 1.508336e+00 # WT
DECAY  23 2.495200e+00 # WZ
DECAY  24 2.085000e+00 # WW
DECAY  25 4.070000e-03 # WH
## Dependent parameters, given by model restrictions.
## Those values should be edited following the
## analytical expression. MG5 ignores those values
## but they are important for interfacing the output of MG5
## to external program such as Pythia.
DECAY  1 0.000000 # d : 0.0
DECAY  2 0.000000 # u : 0.0
DECAY  3 0.000000 # s : 0.0
DECAY  4 0.000000 # c : 0.0
DECAY  5 0.000000 # b : 0.0
DECAY  11 0.000000 # e- : 0.0
DECAY  12 0.000000 # ve : 0.0
DECAY  13 0.000000 # mu- : 0.0
DECAY  14 0.000000 # vm : 0.0
DECAY  15 0.000000 # ta- : 0.0
DECAY  16 0.000000 # vt : 0.0
DECAY  21 0.000000 # g : 0.0
DECAY  22 0.000000 # a : 0.0
DECAY  9000005 0.000000 # ax : 0.0
#===========================================================
# QUANTUM NUMBERS OF NEW STATE(S) (NON SM PDG CODE)
#===========================================================
Block QNUMBERS 9000005  # ax
1 0  # 3 times electric charge
2 1  # number of spin states (2S+1)
3 1  # colour rep (1: singlet, 3: triplet, 8: octet)
4 0  # Particle/Antiparticle distinction (0=own anti)
</slha>
<MGGenerationInfo>
#  Number of Events        :       500000
#  Integrated weight (pb)  :       0.032671263
</MGGenerationInfo>
</header>
<init>
	2212	2212	6500.0	6500.0	0	0	247000	247000	-4	1
	0.03267126	1.151401e-05	0.03267126	1
</init>
<event>
	4	1	3.267126300E-02	2.210842000E+03	7.818608000E-03	8.513929000E-02
	-2	-1	0	0	0	501	-0.000000000E+00	0.000000000E+00	5.849006135E+02	5.849006135E+02	5.040000000E-03	0.000000000E+00	1.000000000E+00
	1	-1	0	0	501	0	0.000000000E+00	-0.000000000E+00	-2.089168311E+03	2.089168311E+03	2.550000000E-03	0.000000000E+00	-1.000000000E+00
	-24	1	1	2	0	0	-1.060289265E+03	1.192064271E+02	-1.095963900E+03	1.531643659E+03	7.982435975E+01	0.000000000E+00	-1.000000000E+00
	9000005	1	1	2	0	0	1.060289265E+03	-1.192064271E+02	-4.083037972E+02	1.142425266E+03	1.000000000E-05	0.000000000E+00	0.000000000E+00

</event>
<event>
	4	1	3.267126300E-02	1.225566000E+03	7.818608000E-03	9.090769000E-02
	1	-1	0	0	501	0	0.000000000E+00	0.000000000E+00	1.305860164E+03	1.305860164E+03	5.040000000E-03	0.000000000E+00	-1.000000000E+00
	-2	-1	0	0	0	501	-0.000000000E+00	-0.000000000E+00	-2.875520422E+02	2.875520422E+02	2.550000000E-03	0.000000000E+00	1.000000000E+00
	-24	1	1	2	0	0	5.469499139E+02	-2.665900127E+02	4.517465909E+02	7.620179486E+02	7.982435975E+01	0.000000000E+00	-1.000000000E+00
	9000005	1	1	2	0	0	-5.469499139E+02	2.665900127E+02	5.665615309E+02	8.313942575E+02	1.000000000E-05	0.000000000E+00	0.000000000E+00

</event>
<event>
	4	1	3.267126300E-02	1.311582000E+03	7.818608000E-03	9.020431000E-02
	1	-1	0	0	501	0	0.000000000E+00	0.000000000E+00	1.280549215E+03	1.280549215E+03	5.040000000E-03	0.000000000E+00	-1.000000000E+00
	-2	-1	0	0	0	501	-0.000000000E+00	-0.000000000E+00	-3.358417843E+02	3.358417843E+02	2.550000000E-03	0.000000000E+00	1.000000000E+00
	-24	1	1	2	0	0	-3.548553706E+02	-5.469015699E+02	5.272282463E+02	8.422382166E+02	7.982435975E+01	0.000000000E+00	-1.000000000E+00
	9000005	1	1	2	0	0	3.548553706E+02	5.469015699E+02	4.174791839E+02	7.741527823E+02	1.000000000E-05	0.000000000E+00	0.000000000E+00

</event>
<event>
	4	1	3.267126300E-02	1.312812000E+03	7.818608000E-03	9.019467000E-02
	1	-1	0	0	501	0	0.000000000E+00	0.000000000E+00	1.052874101E+03	1.052874101E+03	5.040000000E-03	0.000000000E+00	-1.000000000E+00
	-2	-1	0	0	0	501	-0.000000000E+00	-0.000000000E+00	-4.092309551E+02	4.092309551E+02	2.550000000E-03	0.000000000E+00	1.000000000E+00
	-24	1	1	2	0	0	-5.991427647E+02	1.872220874E+02	5.273553497E+02	8.237109661E+02	7.982435975E+01	0.000000000E+00	-1.000000000E+00
	9000005	1	1	2	0	0	5.991427647E+02	-1.872220874E+02	1.162877961E+02	6.383940899E+02	1.000000000E-05	0.000000000E+00	0.000000000E+00

</event>
<event>
	4	1	3.267126300E-02	2.424390000E+03	7.818608000E-03	8.430428000E-02
	-2	-1	0	0	0	501	-0.000000000E+00	0.000000000E+00	1.648527155E+03	1.648527155E+03	5.040000000E-03	0.000000000E+00	1.000000000E+00
	1	-1	0	0	501	0	0.000000000E+00	-0.000000000E+00	-8.913515492E+02	8.913515492E+02	2.550000000E-03	0.000000000E+00	-1.000000000E+00
	-24	1	1	2	0	0	6.931917812E+02	5.209230479E+02	-5.064601870E+02	1.007347764E+03	7.982435975E+01	0.000000000E+00	-1.000000000E+00
	9000005	1	1	2	0	0	-6.931917812E+02	-5.209230479E+02	1.263635792E+03	1.532530940E+03	1.000000000E-05	0.000000000E+00	0.000000000E+00

</event>
<event>
	4	1	3.267126300E-02	1.564892000E+03	7.818608000E-03	8.842411000E-02
	1	-1	0	0	501	0	0.000000000E+00	0.000000000E+00	1.326313100E+03	1.326313100E+03	5.040000000E-03	0.000000000E+00	-1.000000000E+00
	-2	-1	0	0	0	501	-0.000000000E+00	-0.000000000E+00	-4.615966251E+02	4.615966251E+02	2.550000000E-03	0.000000000E+00	1.000000000E+00
	-24	1	1	2	0	0	-4.542253418E+02	-6.047096165E+02	2.135814701E+02	7.899261701E+02	7.982435975E+01	0.000000000E+00	1.000000000E+00
	9000005	1	1	2	0	0	4.542253418E+02	6.047096165E+02	6.511350046E+02	9.979835548E+02	1.000000000E-05	0.000000000E+00	0.000000000E+00

</event>
<event>
	4	1	3.267126300E-02	1.913472000E+03	7.818608000E-03	8.648180000E-02
	-2	-1	0	0	0	501	-0.000000000E+00	0.000000000E+00	7.738442118E+02	7.738442118E+02	5.040000000E-03	0.000000000E+00	1.000000000E+00
	1	-1	0	0	501	0	0.000000000E+00	-0.000000000E+00	-1.182852162E+03	1.182852162E+03	2.550000000E-03	0.000000000E+00	-1.000000000E+00
	-24	1	1	2	0	0	3.773680129E+02	-7.383365414E+02	-6.894990754E+02	1.081354877E+03	7.982435975E+01	0.000000000E+00	-1.000000000E+00
	9000005	1	1	2	0	0	-3.773680129E+02	7.383365414E+02	2.804911253E+02	8.753414973E+02	1.000000000E-05	0.000000000E+00	0.000000000E+00

</event>
<event>
	6	1	3.267126300E-02	2.666184000E+03	7.818608000E-03	8.346061000E-02
	2	-1	0	0	501	0	0.000000000E+00	0.000000000E+00	1.850329687E+03	1.850329687E+03	2.550000000E-03	0.000000000E+00	-1.000000000E+00
	-1	-1	0	0	0	501	-0.000000000E+00	-0.000000000E+00	-9.604422341E+02	9.604422341E+02	5.040000000E-03	0.000000000E+00	1.000000000E+00
	24	2	1	2	0	0	9.227077566E+02	-1.626984543E+02	-5.526230930E+02	1.090685567E+03	7.963875746E+01	0.000000000E+00	0.000000000E+00
	-11	1	3	3	0	0	9.008966019E+02	-1.518177887E+02	-5.244361233E+02	1.053421367E+03	5.110000000E-04	0.000000000E+00	1.000000000E+00
	12	1	3	3	0	0	2.181115464E+01	-1.088066558E+01	-2.818696978E+01	3.726420018E+01	0.000000000E+00	0.000000000E+00	-1.000000000E+00
	9000005	1	1	2	0	0	-9.227077566E+02	1.626984543E+02	1.442510546E+03	1.720086354E+03	1.000000000E-05	0.000000000E+00	0.000000000E+00

</event>
<event>
	4	1	3.267126300E-02	1.617318000E+03	7.818608000E-03	8.809979000E-02
	-2	-1	0	0	0	501	-0.000000000E+00	0.000000000E+00	2.331978212E+02	2.331978212E+02	5.040000000E-03	0.000000000E+00	1.000000000E+00
	1	-1	0	0	501	0	0.000000000E+00	-0.000000000E+00	-2.804182015E+03	2.804182015E+03	2.550000000E-03	0.000000000E+00	-1.000000000E+00
	-24	1	1	2	0	0	-1.413609278E+02	-7.942053230E+02	-1.285937676E+03	1.520115996E+03	7.982435975E+01	0.000000000E+00	-1.000000000E+00
	9000005	1	1	2	0	0	1.413609278E+02	7.942053230E+02	-1.285046518E+03	1.517263840E+03	1.000000000E-05	0.000000000E+00	0.000000000E+00

</event>
<event>
	4	1	3.267126300E-02	1.769485000E+03	7.818608000E-03	8.722697000E-02
	-2	-1	0	0	0	501	-0.000000000E+00	0.000000000E+00	1.071480530E+03	1.071480530E+03	5.040000000E-03	0.000000000E+00	1.000000000E+00
	1	-1	0	0	501	0	0.000000000E+00	-0.000000000E+00	-7.305492419E+02	7.305492419E+02	2.550000000E-03	0.000000000E+00	-1.000000000E+00
	-24	1	1	2	0	0	-3.344160178E+02	-7.777023350E+02	-8.466301157E+01	8.545143350E+02	7.982435975E+01	0.000000000E+00	-1.000000000E+00
	9000005	1	1	2	0	0	3.344160178E+02	7.777023350E+02	4.255942993E+02	9.475154365E+02	1.000000000E-05	0.000000000E+00	0.000000000E+00

</event>
<event>
	4	1	3.267126300E-02	1.629938000E+03	7.818608000E-03	8.802364000E-02
	1	-1	0	0	501	0	0.000000000E+00	0.000000000E+00	8.189882909E+02	8.189882909E+02	5.040000000E-03	0.000000000E+00	-1.000000000E+00
	-2	-1	0	0	0	501	-0.000000000E+00	-0.000000000E+00	-8.109692599E+02	8.109692599E+02	2.550000000E-03	0.000000000E+00	1.000000000E+00
	-24	1	1	2	0	0	2.889009093E+02	-7.575085131E+02	-5.688564352E+01	8.166338149E+02	7.982435975E+01	0.000000000E+00	-1.000000000E+00
	9000005	1	1	2	0	0	-2.889009093E+02	7.575085131E+02	6.490467453E+01	8.133237360E+02	1.000000000E-05	0.000000000E+00	0.000000000E+00

</event>
<event>
	4	1	3.267126300E-02	2.368138000E+03	7.818608000E-03	8.451530000E-02
	-2	-1	0	0	0	501	-0.000000000E+00	0.000000000E+00	1.861460208E+03	1.861460208E+03	5.040000000E-03	0.000000000E+00	1.000000000E+00
	1	-1	0	0	501	0	0.000000000E+00	-0.000000000E+00	-7.531824004E+02	7.531824004E+02	2.550000000E-03	0.000000000E+00	-1.000000000E+00
	-24	1	1	2	0	0	-6.929160223E+02	-1.152824004E+02	1.605347158E+03	1.754119172E+03	7.982435975E+01	0.000000000E+00	1.000000000E+00
	9000005	1	1	2	0	0	6.929160223E+02	1.152824004E+02	-4.970693498E+02	8.605234363E+02	1.000000000E-05	0.000000000E+00	0.000000000E+00

</event>
<event>
	4	1	3.267126300E-02	2.786560000E+03	7.818608000E-03	8.307453000E-02
	1	-1	0	0	501	0	0.000000000E+00	0.000000000E+00	2.416961093E+03	2.416961093E+03	5.040000000E-03	0.000000000E+00	-1.000000000E+00
	-2	-1	0	0	0	501	-0.000000000E+00	-0.000000000E+00	-8.031691925E+02	8.031691925E+02	2.550000000E-03	0.000000000E+00	1.000000000E+00
	-24	1	1	2	0	0	-5.988194525E+02	-7.761859583E+02	-3.346656693E+02	1.038952558E+03	7.982435975E+01	0.000000000E+00	1.000000000E+00
	9000005	1	1	2	0	0	5.988194525E+02	7.761859583E+02	1.948457570E+03	2.181177728E+03	1.000000000E-05	0.000000000E+00	0.000000000E+00

</event>
<event>
	4	1	3.267126300E-02	1.856526000E+03	7.818608000E-03	8.676804000E-02
	1	-1	0	0	501	0	0.000000000E+00	0.000000000E+00	1.832114386E+03	1.832114386E+03	5.040000000E-03	0.000000000E+00	-1.000000000E+00
	-2	-1	0	0	0	501	-0.000000000E+00	-0.000000000E+00	-4.703155507E+02	4.703155507E+02	2.550000000E-03	0.000000000E+00	1.000000000E+00
	-24	1	1	2	0	0	7.511886861E+02	-2.535079972E+02	8.746776727E+01	8.016066900E+02	7.982435975E+01	0.000000000E+00	1.000000000E+00
	9000005	1	1	2	0	0	-7.511886861E+02	2.535079972E+02	1.274331068E+03	1.500823246E+03	1.000000000E-05	0.000000000E+00	0.000000000E+00

</event>
<event>
	4	1	3.267126300E-02	1.748701000E+03	7.818608000E-03	8.734066000E-02
	1	-1	0	0	501	0	0.000000000E+00	0.000000000E+00	5.730158322E+02	5.730158322E+02	5.040000000E-03	0.000000000E+00	-1.000000000E+00
	-2	-1	0	0	0	501	-0.000000000E+00	-0.000000000E+00	-1.334149674E+03	1.334149674E+03	2.550000000E-03	0.000000000E+00	1.000000000E+00
	-24	1	1	2	0	0	4.756158243E+02	-4.306570177E+02	-1.026237631E+03	1.212935070E+03	7.982435975E+01	0.000000000E+00	1.000000000E+00
	9000005	1	1	2	0	0	-4.756158243E+02	4.306570177E+02	2.651037898E+02	6.942304362E+02	1.000000000E-05	0.000000000E+00	0.000000000E+00

</event>
<event>
	4	1	3.267126300E-02	1.399758000E+03	7.818608000E-03	8.953993000E-02
	-2	-1	0	0	0	501	-0.000000000E+00	0.000000000E+00	2.618242831E+02	2.618242831E+02	5.040000000E-03	0.000000000E+00	1.000000000E+00
	1	-1	0	0	501	0	0.000000000E+00	-0.000000000E+00	-1.870838259E+03	1.870838259E+03	2.550000000E-03	0.000000000E+00	-1.000000000E+00
	-24	1	1	2	0	0	3.131743818E+02	-5.292193009E+02	-1.308982208E+03	1.448432812E+03	7.982435975E+01	0.000000000E+00	-1.000000000E+00
	9000005	1	1	2	0	0	-3.131743818E+02	5.292193009E+02	-3.000317683E+02	6.842297303E+02	1.000000000E-05	0.000000000E+00	0.000000000E+00

</event>
<event>
	4	1	3.267126300E-02	1.561918000E+03	7.818608000E-03	8.844291000E-02
	1	-1	0	0	501	0	0.000000000E+00	0.000000000E+00	1.535951805E+03	1.535951805E+03	5.040000000E-03	0.000000000E+00	-1.000000000E+00
	-2	-1	0	0	0	501	-0.000000000E+00	-0.000000000E+00	-3.970806909E+02	3.970806909E+02	2.550000000E-03	0.000000000E+00	1.000000000E+00
	-24	1	1	2	0	0	2.804252114E+02	6.576702645E+02	9.534730538E+02	1.194425079E+03	7.982435975E+01	0.000000000E+00	-1.000000000E+00
	9000005	1	1	2	0	0	-2.804252114E+02	-6.576702645E+02	1.853980604E+02	7.386074172E+02	1.000000000E-05	0.000000000E+00	0.000000000E+00

</event>
<event>
	4	1	3.267126300E-02	1.916641000E+03	7.818608000E-03	8.646617000E-02
	1	-1	0	0	501	0	0.000000000E+00	0.000000000E+00	1.770160931E+03	1.770160931E+03	5.040000000E-03	0.000000000E+00	-1.000000000E+00
	-2	-1	0	0	0	501	-0.000000000E+00	-0.000000000E+00	-5.188107242E+02	5.188107242E+02	2.550000000E-03	0.000000000E+00	1.000000000E+00
	-24	1	1	2	0	0	7.157301389E+02	-2.292587169E+02	1.333664635E+03	1.532926117E+03	7.982435975E+01	0.000000000E+00	-1.000000000E+00
	9000005	1	1	2	0	0	-7.157301389E+02	2.292587169E+02	-8.231442874E+01	7.560455385E+02	1.000000000E-05	0.000000000E+00	0.000000000E+00

</event>
<event>
	4	1	3.267126300E-02	1.860257000E+03	7.818608000E-03	8.674896000E-02
	-4	-1	0	0	0	501	-0.000000000E+00	0.000000000E+00	2.330512760E+03	2.330513106E+03	1.010000000E-01	0.000000000E+00	1.000000000E+00
	3	-1	0	0	501	0	0.000000000E+00	-0.000000000E+00	-3.712225206E+02	3.712225344E+02	1.270000000E+00	0.000000000E+00	-1.000000000E+00
	-24	1	1	2	0	0	-7.709610597E+02	-1.629930119E+02	2.684545679E+02	8.362938843E+02	7.982435975E+01	0.000000000E+00	-1.000000000E+00
	9000005	1	1	2	0	0	7.709610597E+02	1.629930119E+02	1.690835671E+03	1.865441756E+03	1.000000000E-05	0.000000000E+00	0.000000000E+00

</event>
<event>
	4	1	3.267126300E-02	1.272177000E+03	7.818608000E-03	9.051924000E-02
	-2	-1	0	0	0	501	-0.000000000E+00	0.000000000E+00	3.200637808E+02	3.200637808E+02	5.040000000E-03	0.000000000E+00	1.000000000E+00
	1	-1	0	0	501	0	0.000000000E+00	-0.000000000E+00	-1.264150749E+03	1.264150749E+03	2.550000000E-03	0.000000000E+00	-1.000000000E+00
	-24	1	1	2	0	0	4.928763706E+02	3.979104486E+02	-4.576973560E+02	7.855689911E+02	7.982435975E+01	0.000000000E+00	-1.000000000E+00
	9000005	1	1	2	0	0	-4.928763706E+02	-3.979104486E+02	-4.863896127E+02	7.986455391E+02	1.000000000E-05	0.000000000E+00	0.000000000E+00

</event>
<event>
	4	1	3.267126300E-02	2.324908000E+03	7.818608000E-03	8.468164000E-02
	-2	-1	0	0	0	501	-0.000000000E+00	0.000000000E+00	4.222042561E+02	4.222042561E+02	5.040000000E-03	0.000000000E+00	1.000000000E+00
	1	-1	0	0	501	0	0.000000000E+00	-0.000000000E+00	-3.200582697E+03	3.200582697E+03	2.550000000E-03	0.000000000E+00	-1.000000000E+00
	-24	1	1	2	0	0	-7.335409453E+02	4.561987836E+02	-1.818865052E+02	8.863714107E+02	7.982435975E+01	0.000000000E+00	1.000000000E+00
	9000005	1	1	2	0	0	7.335409453E+02	-4.561987836E+02	-2.596491936E+03	2.736415542E+03	1.000000000E-05	0.000000000E+00	0.000000000E+00

</event>
<event>
	4	1	3.267126300E-02	1.374884000E+03	7.818608000E-03	8.972202000E-02
	-2	-1	0	0	0	501	-0.000000000E+00	0.000000000E+00	4.143372006E+02	4.143372006E+02	5.040000000E-03	0.000000000E+00	1.000000000E+00
	1	-1	0	0	501	0	0.000000000E+00	-0.000000000E+00	-1.140559989E+03	1.140559989E+03	2.550000000E-03	0.000000000E+00	-1.000000000E+00
	-24	1	1	2	0	0	8.987194378E+01	-6.678580805E+02	-5.041526033E+02	8.453716093E+02	7.982435975E+01	0.000000000E+00	-1.000000000E+00
	9000005	1	1	2	0	0	-8.987194378E+01	6.678580805E+02	-2.220701851E+02	7.095255803E+02	1.000000000E-05	0.000000000E+00	0.000000000E+00

</event>
<event>
	4	1	3.267126300E-02	1.534940000E+03	7.818608000E-03	8.861545000E-02
	1	-1	0	0	501	0	0.000000000E+00	0.000000000E+00	1.345169553E+03	1.345169553E+03	5.040000000E-03	0.000000000E+00	-1.000000000E+00
	-2	-1	0	0	0	501	-0.000000000E+00	-0.000000000E+00	-4.378705264E+02	4.378705264E+02	2.550000000E-03	0.000000000E+00	1.000000000E+00
	-24	1	1	2	0	0	3.478166182E+02	-5.088574194E+02	-7.225022908E+01	6.257030424E+02	7.982435975E+01	0.000000000E+00	1.000000000E+00
	9000005	1	1	2	0	0	-3.478166182E+02	5.088574194E+02	9.795492556E+02	1.157337037E+03	1.000000000E-05	0.000000000E+00	0.000000000E+00

</event>
<event>
	4	1	3.267126300E-02	1.353584000E+03	7.818608000E-03	8.988120000E-02
	-2	-1	0	0	0	501	-0.000000000E+00	0.000000000E+00	7.457819075E+02	7.457819075E+02	5.040000000E-03	0.000000000E+00	1.000000000E+00
	1	-1	0	0	501	0	0.000000000E+00	-0.000000000E+00	-6.141837308E+02	6.141837308E+02	2.550000000E-03	0.000000000E+00	-1.000000000E+00
	-24	1	1	2	0	0	6.057282648E+02	-4.428040488E+00	-2.319176688E+02	6.535166959E+02	7.982435975E+01	0.000000000E+00	-1.000000000E+00
	9000005	1	1	2	0	0	-6.057282648E+02	4.428040488E+00	3.635158454E+02	7.064489424E+02	1.000000000E-05	0.000000000E+00	0.000000000E+00

</event>
<event>
	4	1	3.267126300E-02	2.507000000E+03	7.818608000E-03	8.400496000E-02
	1	-1	0	0	501	0	0.000000000E+00	0.000000000E+00	2.215570183E+03	2.215570183E+03	5.040000000E-03	0.000000000E+00	-1.000000000E+00
	-2	-1	0	0	0	501	-0.000000000E+00	-0.000000000E+00	-7.091909301E+02	7.091909301E+02	2.550000000E-03	0.000000000E+00	1.000000000E+00
	-24	1	1	2	0	0	-1.117745478E+02	-1.177953048E+03	2.757583549E+02	1.217571982E+03	7.982435975E+01	0.000000000E+00	1.000000000E+00
	9000005	1	1	2	0	0	1.117745478E+02	1.177953048E+03	1.230620898E+03	1.707189131E+03	1.000000000E-05	0.000000000E+00	0.000000000E+00

</event>
<event>
	4	1	3.267126300E-02	1.487486000E+03	7.818608000E-03	8.892818000E-02
	-2	-1	0	0	0	501	-0.000000000E+00	0.000000000E+00	7.997159133E+02	7.997159133E+02	5.040000000E-03	0.000000000E+00	1.000000000E+00
	1	-1	0	0	501	0	0.000000000E+00	-0.000000000E+00	-6.916874542E+02	6.916874543E+02	2.550000000E-03	0.000000000E+00	-1.000000000E+00
	-24	1	1	2	0	0	-3.593929209E+02	-6.235078308E+02	-1.253179001E+02	7.348481416E+02	7.982435975E+01	0.000000000E+00	1.000000000E+00
	9000005	1	1	2	0	0	3.593929209E+02	6.235078308E+02	2.333463591E+02	7.565552260E+02	1.000000000E-05	0.000000000E+00	0.000000000E+00

</event>
<event>
	4	1	3.267126300E-02	4.539861000E+03	7.818608000E-03	7.903695000E-02
	-2	-1	0	0	0	501	-0.000000000E+00	0.000000000E+00	1.750745264E+03	1.750745264E+03	5.040000000E-03	0.000000000E+00	1.000000000E+00
	1	-1	0	0	501	0	0.000000000E+00	-0.000000000E+00	-2.943079998E+03	2.943079998E+03	2.550000000E-03	0.000000000E+00	-1.000000000E+00
	-24	1	1	2	0	0	1.705939895E+03	-9.967045526E+02	-1.750334476E+03	2.640775189E+03	7.982435975E+01	0.000000000E+00	-1.000000000E+00
	9000005	1	1	2	0	0	-1.705939895E+03	9.967045526E+02	5.579997421E+02	2.053050073E+03	1.000000000E-05	0.000000000E+00	0.000000000E+00

</event>
<event>
	4	1	3.267126300E-02	1.314487000E+03	7.818608000E-03	9.018155000E-02
	1	-1	0	0	501	0	0.000000000E+00	0.000000000E+00	1.324383578E+03	1.324383578E+03	5.040000000E-03	0.000000000E+00	-1.000000000E+00
	-2	-1	0	0	0	501	-0.000000000E+00	-0.000000000E+00	-3.261662194E+02	3.261662194E+02	2.550000000E-03	0.000000000E+00	1.000000000E+00
	-24	1	1	2	0	0	-6.037565965E+02	2.477558000E+02	4.335151282E+02	7.875355604E+02	7.982435975E+01	0.000000000E+00	1.000000000E+00
	9000005	1	1	2	0	0	6.037565965E+02	-2.477558000E+02	5.647022306E+02	8.630142371E+02	1.000000000E-05	0.000000000E+00	0.000000000E+00

</event>
<event>
	4	1	3.267126300E-02	1.473382000E+03	7.818608000E-03	8.902349000E-02
	-2	-1	0	0	0	501	-0.000000000E+00	0.000000000E+00	2.182149266E+03	2.182149266E+03	5.040000000E-03	0.000000000E+00	1.000000000E+00
	1	-1	0	0	501	0	0.000000000E+00	-0.000000000E+00	-2.487061671E+02	2.487061671E+02	2.550000000E-03	0.000000000E+00	-1.000000000E+00
	-24	1	1	2	0	0	7.330921321E+02	1.134071291E+01	1.042972738E+03	1.277386686E+03	7.982435975E+01	0.000000000E+00	-1.000000000E+00
	9000005	1	1	2	0	0	-7.330921321E+02	-1.134071291E+01	8.904703608E+02	1.153468747E+03	1.000000000E-05	0.000000000E+00	0.000000000E+00

</event>
<event>
	4	1	3.267126300E-02	1.343570000E+03	7.818608000E-03	8.995710000E-02
	-2	-1	0	0	0	501	-0.000000000E+00	0.000000000E+00	1.216268491E+03	1.216268491E+03	5.040000000E-03	0.000000000E+00	1.000000000E+00
	1	-1	0	0	501	0	0.000000000E+00	-0.000000000E+00	-3.710486540E+02	3.710486540E+02	2.550000000E-03	0.000000000E+00	-1.000000000E+00
	-24	1	1	2	0	0	4.129503955E+02	5.268352854E+02	4.306793129E+02	7.999625279E+02	7.982435975E+01	0.000000000E+00	-1.000000000E+00
	9000005	1	1	2	0	0	-4.129503955E+02	-5.268352854E+02	4.145405244E+02	7.873546173E+02	1.000000000E-05	0.000000000E+00	0.000000000E+00

</event>
<event>
	4	1	3.267126300E-02	1.384188000E+03	7.818608000E-03	8.965344000E-02
	-2	-1	0	0	0	501	-0.000000000E+00	0.000000000E+00	5.384294646E+02	5.384294646E+02	5.040000000E-03	0.000000000E+00	1.000000000E+00
	1	-1	0	0	501	0	0.000000000E+00	-0.000000000E+00	-8.896131288E+02	8.896131288E+02	2.550000000E-03	0.000000000E+00	-1.000000000E+00
	-24	1	1	2	0	0	-5.880044929E+02	-3.014715668E+02	2.803189362E+01	6.661772322E+02	7.982435975E+01	0.000000000E+00	1.000000000E+00
	9000005	1	1	2	0	0	5.880044929E+02	3.014715668E+02	-3.792155578E+02	7.618653612E+02	1.000000000E-05	0.000000000E+00	0.000000000E+00

</event>
<event>
	4	1	3.267126300E-02	1.779571000E+03	7.818608000E-03	8.717240000E-02
	1	-1	0	0	501	0	0.000000000E+00	0.000000000E+00	1.298151150E+03	1.298151150E+03	5.040000000E-03	0.000000000E+00	-1.000000000E+00
	-2	-1	0	0	0	501	-0.000000000E+00	-0.000000000E+00	-6.098811288E+02	6.098811288E+02	2.550000000E-03	0.000000000E+00	1.000000000E+00
	-24	1	1	2	0	0	3.897017635E+02	7.771056952E+02	5.389329530E+02	1.025953889E+03	7.982435975E+01	0.000000000E+00	-1.000000000E+00
	9000005	1	1	2	0	0	-3.897017635E+02	-7.771056952E+02	1.493370681E+02	8.820783898E+02	1.000000000E-05	0.000000000E+00	0.000000000E+00

</event>
<event>
	6	1	3.267126300E-02	1.946731000E+03	7.818608000E-03	8.631939000E-02
	-1	-1	0	0	0	501	-0.000000000E+00	0.000000000E+00	5.836297292E+02	5.836297292E+02	2.550000000E-03	0.000000000E+00	1.000000000E+00
	2	-1	0	0	501	0	0.000000000E+00	-0.000000000E+00	-1.623359529E+03	1.623359529E+03	5.040000000E-03	0.000000000E+00	-1.000000000E+00
	24	2	1	2	0	0	-7.116743064E+01	-7.404627723E+02	1.880286472E+02	7.714612284E+02	8.029778590E+01	0.000000000E+00	0.000000000E+00
	-11	1	3	3	0	0	-7.527868425E+01	-6.031546353E+02	1.260957090E+02	6.207757423E+02	5.110000000E-04	0.000000000E+00	1.000000000E+00
	12	1	3	3	0	0	4.111253607E+00	-1.373081370E+02	6.193293819E+01	1.506854861E+02	0.000000000E+00	0.000000000E+00	-1.000000000E+00
	9000005	1	1	2	0	0	7.116743064E+01	7.404627723E+02	-1.227758447E+03	1.435528030E+03	1.000000000E-05	0.000000000E+00	0.000000000E+00

</event>
<event>
	4	1	3.267126300E-02	1.307438000E+03	7.818608000E-03	9.023687000E-02
	1	-1	0	0	501	0	0.000000000E+00	0.000000000E+00	7.946956491E+02	7.946956492E+02	5.040000000E-03	0.000000000E+00	-1.000000000E+00
	-2	-1	0	0	0	501	-0.000000000E+00	-0.000000000E+00	-5.377513010E+02	5.377513010E+02	2.550000000E-03	0.000000000E+00	1.000000000E+00
	-24	1	1	2	0	0	-3.842309281E+01	6.278970602E+02	3.008110622E+02	7.018477582E+02	7.982435975E+01	0.000000000E+00	1.000000000E+00
	9000005	1	1	2	0	0	3.842309281E+01	-6.278970602E+02	-4.386671398E+01	6.305991919E+02	1.000000000E-05	0.000000000E+00	0.000000000E+00

</event>
<event>
	4	1	3.267126300E-02	1.584084000E+03	7.818608000E-03	8.830386000E-02
	1	-1	0	0	501	0	0.000000000E+00	0.000000000E+00	1.243319256E+03	1.243319256E+03	5.040000000E-03	0.000000000E+00	-1.000000000E+00
	-2	-1	0	0	0	501	-0.000000000E+00	-0.000000000E+00	-5.045611757E+02	5.045611757E+02	2.550000000E-03	0.000000000E+00	1.000000000E+00
	-24	1	1	2	0	0	-4.866111257E+02	-5.156296959E+02	-1.426912798E+01	7.136104731E+02	7.982435975E+01	0.000000000E+00	1.000000000E+00
	9000005	1	1	2	0	0	4.866111257E+02	5.156296959E+02	7.530272086E+02	1.034269959E+03	1.000000000E-05	0.000000000E+00	0.000000000E+00

</event>
<event>
	4	1	3.267126300E-02	2.432652000E+03	7.818608000E-03	8.427379000E-02
	-2	-1	0	0	0	501	-0.000000000E+00	0.000000000E+00	1.557965069E+03	1.557965069E+03	5.040000000E-03	0.000000000E+00	1.000000000E+00
	1	-1	0	0	501	0	0.000000000E+00	-0.000000000E+00	-9.496032115E+02	9.496032115E+02	2.550000000E-03	0.000000000E+00	-1.000000000E+00
	-24	1	1	2	0	0	8.468899331E+01	-6.062196651E+02	-7.773807698E+02	9.926566867E+02	7.982435975E+01	0.000000000E+00	-1.000000000E+00
	9000005	1	1	2	0	0	-8.468899331E+01	6.062196651E+02	1.385742628E+03	1.514911594E+03	1.000000000E-05	0.000000000E+00	0.000000000E+00

</event>
<event>
	4	1	3.267126300E-02	1.761065000E+03	7.818608000E-03	8.727283000E-02
	-2	-1	0	0	0	501	-0.000000000E+00	0.000000000E+00	8.462430931E+02	8.462430931E+02	5.040000000E-03	0.000000000E+00	1.000000000E+00
	1	-1	0	0	501	0	0.000000000E+00	-0.000000000E+00	-9.162117429E+02	9.162117429E+02	2.550000000E-03	0.000000000E+00	-1.000000000E+00
	-24	1	1	2	0	0	-6.523230626E+02	3.342735360E+02	4.499817117E+02	8.637821741E+02	7.982435975E+01	0.000000000E+00	1.000000000E+00
	9000005	1	1	2	0	0	6.523230626E+02	-3.342735360E+02	-5.199503615E+02	8.986726619E+02	1.000000000E-05	0.000000000E+00	0.000000000E+00

</event>
<event>
	4	1	3.267126300E-02	1.309292000E+03	7.818608000E-03	9.022229000E-02
	1	-1	0	0	501	0	0.000000000E+00	0.000000000E+00	6.663651346E+02	6.663651347E+02	5.040000000E-03	0.000000000E+00	-1.000000000E+00
	-2	-1	0	0	0	501	-0.000000000E+00	-0.000000000E+00	-6.431325519E+02	6.431325519E+02	2.550000000E-03	0.000000000E+00	1.000000000E+00
	-24	1	1	2	0	0	1.559316231E+02	-6.098508670E+02	-1.590961839E+02	6.541530976E+02	7.982435975E+01	0.000000000E+00	1.000000000E+00
	9000005	1	1	2	0	0	-1.559316231E+02	6.098508670E+02	1.823287667E+02	6.553445889E+02	1.000000000E-05	0.000000000E+00	0.000000000E+00

</event>
<event>
	6	1	3.267126300E-02	2.754357000E+03	7.818608000E-03	8.317580000E-02
	-1	-1	0	0	0	501	-0.000000000E+00	0.000000000E+00	1.327394439E+03	1.327394439E+03	2.550000000E-03	0.000000000E+00	1.000000000E+00
	2	-1	0	0	501	0	0.000000000E+00	-0.000000000E+00	-1.428829853E+03	1.428829853E+03	5.040000000E-03	0.000000000E+00	-1.000000000E+00
	24	2	1	2	0	0	5.859660512E+02	1.104191217E+03	-6.263492773E+02	1.400448122E+03	7.966848642E+01	0.000000000E+00	0.000000000E+00
	-11	1	3	3	0	0	3.757355203E+02	7.693961604E+02	-4.022439153E+02	9.460168077E+02	5.110000000E-04	0.000000000E+00	1.000000000E+00
	12	1	3	3	0	0	2.102305309E+02	3.347950570E+02	-2.241053620E+02	4.544313145E+02	0.000000000E+00	0.000000000E+00	-1.000000000E+00
	9000005	1	1	2	0	0	-5.859660512E+02	-1.104191217E+03	5.249138641E+02	1.355776170E+03	1.000000000E-05	0.000000000E+00	0.000000000E+00

</event>
<event>
	4	1	3.267126300E-02	1.571257000E+03	7.818608000E-03	8.838403000E-02
	-2	-1	0	0	0	501	-0.000000000E+00	0.000000000E+00	6.868574275E+02	6.868574275E+02	5.040000000E-03	0.000000000E+00	1.000000000E+00
	1	-1	0	0	501	0	0.000000000E+00	-0.000000000E+00	-8.986033244E+02	8.986033244E+02	2.550000000E-03	0.000000000E+00	-1.000000000E+00
	-24	1	1	2	0	0	5.843726228E+02	4.710800124E+02	1.208827100E+02	7.644555568E+02	7.982435975E+01	0.000000000E+00	1.000000000E+00
	9000005	1	1	2	0	0	-5.843726228E+02	-4.710800124E+02	-3.326286068E+02	8.210051951E+02	1.000000000E-05	0.000000000E+00	0.000000000E+00

</event>
<event>
	6	1	3.267126300E-02	1.433785000E+03	7.818608000E-03	8.929720000E-02
	2	-1	0	0	501	0	0.000000000E+00	0.000000000E+00	1.811450148E+03	1.811450148E+03	2.550000000E-03	0.000000000E+00	-1.000000000E+00
	-1	-1	0	0	0	501	-0.000000000E+00	-0.000000000E+00	-2.837146585E+02	2.837146585E+02	5.040000000E-03	0.000000000E+00	1.000000000E+00
	24	2	1	2	0	0	-3.501932791E+02	6.144020378E+02	6.182212790E+02	9.430618180E+02	8.392166538E+01	0.000000000E+00	0.000000000E+00
	-11	1	3	3	0	0	-3.523230951E+02	5.874226301E+02	5.913958665E+02	9.049563418E+02	5.110000000E-04	0.000000000E+00	1.000000000E+00
	12	1	3	3	0	0	2.129816011E+00	2.697940767E+01	2.682541250E+01	3.810547612E+01	0.000000000E+00	0.000000000E+00	-1.000000000E+00
	9000005	1	1	2	0	0	3.501932791E+02	-6.144020378E+02	9.095142102E+02	1.152102988E+03	1.000000000E-05	0.000000000E+00	0.000000000E+00

</event>
<event>
	4	1	3.267126300E-02	1.976234000E+03	7.818608000E-03	8.617813000E-02
	1	-1	0	0	501	0	0.000000000E+00	0.000000000E+00	2.687516925E+03	2.687516925E+03	5.040000000E-03	0.000000000E+00	-1.000000000E+00
	-2	-1	0	0	0	501	-0.000000000E+00	-0.000000000E+00	-3.632999981E+02	3.632999981E+02	2.550000000E-03	0.000000000E+00	1.000000000E+00
	-24	1	1	2	0	0	8.601883702E+02	3.693870314E+02	6.836498271E+02	1.161946567E+03	7.982435975E+01	0.000000000E+00	-1.000000000E+00
	9000005	1	1	2	0	0	-8.601883702E+02	-3.693870314E+02	1.640567100E+03	1.888870355E+03	1.000000000E-05	0.000000000E+00	0.000000000E+00

</event>
<event>
	4	1	3.267126300E-02	1.734519000E+03	7.818608000E-03	8.741918000E-02
	1	-1	0	0	501	0	0.000000000E+00	0.000000000E+00	1.927382069E+03	1.927382069E+03	5.040000000E-03	0.000000000E+00	-1.000000000E+00
	-2	-1	0	0	0	501	-0.000000000E+00	-0.000000000E+00	-3.902387665E+02	3.902387665E+02	2.550000000E-03	0.000000000E+00	1.000000000E+00
	-24	1	1	2	0	0	-5.455785941E+02	-6.391705986E+02	4.938936246E+02	9.780071049E+02	7.982435975E+01	0.000000000E+00	1.000000000E+00
	9000005	1	1	2	0	0	5.455785941E+02	6.391705986E+02	1.043249678E+03	1.339613730E+03	1.000000000E-05	0.000000000E+00	0.000000000E+00

</event>
<event>
	4	1	3.267126300E-02	2.064116000E+03	7.818608000E-03	8.577217000E-02
	-2	-1	0	0	0	501	-0.000000000E+00	0.000000000E+00	1.414331434E+03	1.414331434E+03	5.040000000E-03	0.000000000E+00	1.000000000E+00
	1	-1	0	0	501	0	0.000000000E+00	-0.000000000E+00	-7.531076742E+02	7.531076742E+02	2.550000000E-03	0.000000000E+00	-1.000000000E+00
	-24	1	1	2	0	0	-7.142284975E+02	4.527007276E+02	-2.873583671E+02	8.966644048E+02	7.982435975E+01	0.000000000E+00	-1.000000000E+00
	9000005	1	1	2	0	0	7.142284975E+02	-4.527007276E+02	9.485821267E+02	1.270774703E+03	1.000000000E-05	0.000000000E+00	0.000000000E+00

</event>
<event>
	4	1	3.267126300E-02	2.178423000E+03	7.818608000E-03	8.527463000E-02
	-2	-1	0	0	0	501	-0.000000000E+00	0.000000000E+00	5.529386387E+02	5.529386387E+02	5.040000000E-03	0.000000000E+00	1.000000000E+00
	1	-1	0	0	501	0	0.000000000E+00	-0.000000000E+00	-2.145594734E+03	2.145594735E+03	2.550000000E-03	0.000000000E+00	-1.000000000E+00
	-24	1	1	2	0	0	1.866128791E+02	9.317442228E+02	-1.416443190E+02	9.640574179E+02	7.982435975E+01	0.000000000E+00	1.000000000E+00
	9000005	1	1	2	0	0	-1.866128791E+02	-9.317442228E+02	-1.451011777E+03	1.734475955E+03	1.000000000E-05	0.000000000E+00	0.000000000E+00

</event>
<event>
	4	1	3.267126300E-02	1.467854000E+03	7.818608000E-03	8.906116000E-02
	1	-1	0	0	501	0	0.000000000E+00	0.000000000E+00	1.054156239E+03	1.054156239E+03	5.040000000E-03	0.000000000E+00	-1.000000000E+00
	-2	-1	0	0	0	501	-0.000000000E+00	-0.000000000E+00	-5.109760576E+02	5.109760576E+02	2.550000000E-03	0.000000000E+00	1.000000000E+00
	-24	1	1	2	0	0	4.351613892E+02	-5.762715847E+02	1.461717590E+02	7.410752226E+02	7.982435975E+01	0.000000000E+00	1.000000000E+00
	9000005	1	1	2	0	0	-4.351613892E+02	5.762715847E+02	3.970084227E+02	8.240570743E+02	1.000000000E-05	0.000000000E+00	0.000000000E+00

</event>
<event>
	4	1	3.267126300E-02	1.737799000E+03	7.818608000E-03	8.740095000E-02
	-4	-1	0	0	0	501	-0.000000000E+00	0.000000000E+00	6.076957630E+02	6.076970900E+02	1.010000000E-01	0.000000000E+00	1.000000000E+00
	3	-1	0	0	501	0	0.000000000E+00	-0.000000000E+00	-1.242373529E+03	1.242373533E+03	1.270000000E+00	0.000000000E+00	-1.000000000E+00
	-24	1	1	2	0	0	5.762281406E+02	3.251797782E+02	2.785726441E+02	7.223263837E+02	7.982435975E+01	0.000000000E+00	1.000000000E+00
	9000005	1	1	2	0	0	-5.762281406E+02	-3.251797782E+02	-9.132504105E+02	1.127744240E+03	1.000000000E-05	0.000000000E+00	0.000000000E+00

</event>
<event>
	4	1	3.267126300E-02	1.301041000E+03	7.818608000E-03	9.028740000E-02
	-2	-1	0	0	0	501	-0.000000000E+00	0.000000000E+00	2.883147763E+02	2.883147763E+02	5.040000000E-03	0.000000000E+00	1.000000000E+00
	1	-1	0	0	501	0	0.000000000E+00	-0.000000000E+00	-1.467759123E+03	1.467759123E+03	2.550000000E-03	0.000000000E+00	-1.000000000E+00
	-24	1	1	2	0	0	4.416491251E+02	4.705399998E+02	-6.721905088E+02	9.352399957E+02	7.982435975E+01	0.000000000E+00	-1.000000000E+00
	9000005	1	1	2	0	0	-4.416491251E+02	-4.705399998E+02	-5.072538382E+02	8.208339037E+02	1.000000000E-05	0.000000000E+00	0.000000000E+00

</event>
<event>
	4	1	3.267126300E-02	1.654947000E+03	7.818608000E-03	8.787485000E-02
	-2	-1	0	0	0	501	-0.000000000E+00	0.000000000E+00	7.807521454E+02	7.807521455E+02	5.040000000E-03	0.000000000E+00	1.000000000E+00
	1	-1	0	0	501	0	0.000000000E+00	-0.000000000E+00	-8.769907174E+02	8.769907174E+02	2.550000000E-03	0.000000000E+00	-1.000000000E+00
	-24	1	1	2	0	0	7.564545559E+02	3.290021960E+02	-8.090821085E+01	8.326968278E+02	7.982435975E+01	0.000000000E+00	-1.000000000E+00
	9000005	1	1	2	0	0	-7.564545559E+02	-3.290021960E+02	-1.533036112E+01	8.250460351E+02	1.000000000E-05	0.000000000E+00	0.000000000E+00

</event>
<event>
	4	1	3.267126300E-02	1.314603000E+03	7.818608000E-03	9.018064000E-02
	1	-1	0	0	501	0	0.000000000E+00	0.000000000E+00	2.606509263E+03	2.606509263E+03	5.040000000E-03	0.000000000E+00	-1.000000000E+00
	-2	-1	0	0	0	501	-0.000000000E+00	-0.000000000E+00	-1.657562447E+02	1.657562447E+02	2.550000000E-03	0.000000000E+00	1.000000000E+00
	-24	1	1	2	0	0	-6.505786047E+02	-7.478159467E+01	1.215377353E+03	1.382880633E+03	7.982435975E+01	0.000000000E+00	1.000000000E+00
	9000005	1	1	2	0	0	6.505786047E+02	7.478159467E+01	1.225375665E+03	1.389384874E+03	1.000000000E-05	0.000000000E+00	0.000000000E+00

</event>
<event>
	4	1	3.267126300E-02	1.561017000E+03	7.818608000E-03	8.844861000E-02
	-2	-1	0	0	0	501	-0.000000000E+00	0.000000000E+00	1.338802390E+03	1.338802390E+03	5.040000000E-03	0.000000000E+00	1.000000000E+00
	1	-1	0	0	501	0	0.000000000E+00	-0.000000000E+00	-4.550289221E+02	4.550289221E+02	2.550000000E-03	0.000000000E+00	-1.000000000E+00
	-24	1	1	2	0	0	-3.312092577E+02	5.267451537E+02	9.806296538E+02	1.164116178E+03	7.982435975E+01	0.000000000E+00	1.000000000E+00
	9000005	1	1	2	0	0	3.312092577E+02	-5.267451537E+02	-9.685618604E+01	6.297151341E+02	1.000000000E-05	0.000000000E+00	0.000000000E+00

</event>
<event>
	6	1	3.267126300E-02	1.780116000E+03	7.818608000E-03	8.716946000E-02
	-1	-1	0	0	0	501	-0.000000000E+00	0.000000000E+00	1.435901110E+03	1.435901110E+03	2.550000000E-03	0.000000000E+00	1.000000000E+00
	2	-1	0	0	501	0	0.000000000E+00	-0.000000000E+00	-5.517114944E+02	5.517114944E+02	5.040000000E-03	0.000000000E+00	-1.000000000E+00
	24	2	1	2	0	0	4.442763056E+02	5.248261672E+02	1.070576900E+03	1.275177231E+03	8.436900540E+01	0.000000000E+00	0.000000000E+00
	-11	1	3	3	0	0	4.228660648E+02	5.207466181E+02	1.041556311E+03	1.238883488E+03	5.110000000E-04	0.000000000E+00	1.000000000E+00
	12	1	3	3	0	0	2.141024077E+01	4.079549119E+00	2.902058932E+01	3.629374238E+01	0.000000000E+00	0.000000000E+00	-1.000000000E+00
	9000005	1	1	2	0	0	-4.442763056E+02	-5.248261672E+02	-1.863872849E+02	7.124353735E+02	1.000000000E-05	0.000000000E+00	0.000000000E+00

</event>
<event>
	4	1	3.267126300E-02	1.546496000E+03	7.818608000E-03	8.854109000E-02
	3	-1	0	0	501	0	0.000000000E+00	0.000000000E+00	7.772955754E+02	7.772955820E+02	1.010000000E-01	0.000000000E+00	-1.000000000E+00
	-2	-1	0	0	0	501	-0.000000000E+00	-0.000000000E+00	-7.692217813E+02	7.692217813E+02	2.550000000E-03	0.000000000E+00	1.000000000E+00
	-24	1	1	2	0	0	3.351647346E+02	-6.900989140E+02	-7.443310648E+01	7.749091083E+02	7.982435975E+01	0.000000000E+00	1.000000000E+00
	9000005	1	1	2	0	0	-3.351647346E+02	6.900989140E+02	8.250690060E+01	7.716082549E+02	1.000000000E-05	0.000000000E+00	0.000000000E+00

</event>
<event>
	4	1	3.267126300E-02	1.503977000E+03	7.818608000E-03	8.881813000E-02
	-2	-1	0	0	0	501	-0.000000000E+00	0.000000000E+00	2.284381755E+02	2.284381755E+02	5.040000000E-03	0.000000000E+00	1.000000000E+00
	1	-1	0	0	501	0	0.000000000E+00	-0.000000000E+00	-2.475447645E+03	2.475447645E+03	2.550000000E-03	0.000000000E+00	-1.000000000E+00
	-24	1	1	2	0	0	6.914375472E+02	1.202345312E+02	-6.518159384E+02	9.611337941E+02	7.982435975E+01	0.000000000E+00	1.000000000E+00
	9000005	1	1	2	0	0	-6.914375472E+02	-1.202345312E+02	-1.595193531E+03	1.742752027E+03	1.000000000E-05	0.000000000E+00	0.000000000E+00

</event>
<event>
	4	1	3.267126300E-02	1.393903000E+03	7.818608000E-03	8.958244000E-02
	-2	-1	0	0	0	501	-0.000000000E+00	0.000000000E+00	1.659029780E+02	1.659029780E+02	5.040000000E-03	0.000000000E+00	1.000000000E+00
	1	-1	0	0	501	0	0.000000000E+00	-0.000000000E+00	-2.927863140E+03	2.927863140E+03	2.550000000E-03	0.000000000E+00	-1.000000000E+00
	-24	1	1	2	0	0	-6.341925233E+02	-2.785084982E+02	-1.268204012E+03	1.447232008E+03	7.982435975E+01	0.000000000E+00	1.000000000E+00
	9000005	1	1	2	0	0	6.341925233E+02	2.785084982E+02	-1.493756150E+03	1.646534110E+03	1.000000000E-05	0.000000000E+00	0.000000000E+00

</event>
<event>
	4	1	3.267126300E-02	2.828042000E+03	7.818608000E-03	8.294615000E-02
	-2	-1	0	0	0	501	-0.000000000E+00	0.000000000E+00	6.831653511E+02	6.831653511E+02	5.040000000E-03	0.000000000E+00	1.000000000E+00
	1	-1	0	0	501	0	0.000000000E+00	-0.000000000E+00	-2.926752261E+03	2.926752261E+03	2.550000000E-03	0.000000000E+00	-1.000000000E+00
	-24	1	1	2	0	0	-1.224809918E+02	7.222866414E+02	4.194537839E+02	8.479463373E+02	7.982435975E+01	0.000000000E+00	1.000000000E+00
	9000005	1	1	2	0	0	1.224809918E+02	-7.222866414E+02	-2.663040694E+03	2.761971275E+03	1.000000000E-05	0.000000000E+00	0.000000000E+00

</event>
<event>
	4	1	3.267126300E-02	1.763125000E+03	7.818608000E-03	8.726159000E-02
	1	-1	0	0	501	0	0.000000000E+00	0.000000000E+00	1.569311827E+03	1.569311827E+03	5.040000000E-03	0.000000000E+00	-1.000000000E+00
	-2	-1	0	0	0	501	-0.000000000E+00	-0.000000000E+00	-4.952185288E+02	4.952185288E+02	2.550000000E-03	0.000000000E+00	1.000000000E+00
	-24	1	1	2	0	0	6.925595245E+02	-3.436463810E+02	1.029720525E+03	1.290127055E+03	7.982435975E+01	0.000000000E+00	-1.000000000E+00
	9000005	1	1	2	0	0	-6.925595245E+02	3.436463810E+02	4.437277397E+01	7.744033014E+02	1.000000000E-05	0.000000000E+00	0.000000000E+00

</event>
<event>
	4	1	3.267126300E-02	1.777096000E+03	7.818608000E-03	8.718575000E-02
	1	-1	0	0	501	0	0.000000000E+00	0.000000000E+00	1.062164797E+03	1.062164797E+03	5.040000000E-03	0.000000000E+00	-1.000000000E+00
	-2	-1	0	0	0	501	-0.000000000E+00	-0.000000000E+00	-7.433096256E+02	7.433096256E+02	2.550000000E-03	0.000000000E+00	1.000000000E+00
	-24	1	1	2	0	0	-7.192712370E+02	2.919898277E+01	-3.663333292E+02	8.116500043E+02	7.982435975E+01	0.000000000E+00	1.000000000E+00
	9000005	1	1	2	0	0	7.192712370E+02	-2.919898277E+01	6.851885003E+02	9.938244180E+02	1.000000000E-05	0.000000000E+00	0.000000000E+00

</event>
<event>
	4	1	3.267126300E-02	2.814958000E+03	7.818608000E-03	8.298640000E-02
	-2	-1	0	0	0	501	-0.000000000E+00	0.000000000E+00	6.810644180E+02	6.810644180E+02	5.040000000E-03	0.000000000E+00	1.000000000E+00
	1	-1	0	0	501	0	0.000000000E+00	-0.000000000E+00	-2.908677265E+03	2.908677265E+03	2.550000000E-03	0.000000000E+00	-1.000000000E+00
	-24	1	1	2	0	0	-4.029924995E+02	6.927274111E+02	3.590329776E+02	8.817884260E+02	7.982435975E+01	0.000000000E+00	1.000000000E+00
	9000005	1	1	2	0	0	4.029924995E+02	-6.927274111E+02	-2.586645824E+03	2.707953257E+03	1.000000000E-05	0.000000000E+00	0.000000000E+00

</event>
<event>
	4	1	3.267126300E-02	2.478043000E+03	7.818608000E-03	8.410850000E-02
	-2	-1	0	0	0	501	-0.000000000E+00	0.000000000E+00	5.588602742E+02	5.588602742E+02	5.040000000E-03	0.000000000E+00	1.000000000E+00
	1	-1	0	0	501	0	0.000000000E+00	-0.000000000E+00	-2.746973438E+03	2.746973438E+03	2.550000000E-03	0.000000000E+00	-1.000000000E+00
	-24	1	1	2	0	0	-5.413446590E+02	-1.061175934E+03	-1.543324712E+03	1.951248702E+03	7.982435975E+01	0.000000000E+00	-1.000000000E+00
	9000005	1	1	2	0	0	5.413446590E+02	1.061175934E+03	-6.447884518E+02	1.354585010E+03	1.000000000E-05	0.000000000E+00	0.000000000E+00

</event>
<event>
	4	1	3.267126300E-02	3.708093000E+03	7.818608000E-03	8.066171000E-02
	-2	-1	0	0	0	501	-0.000000000E+00	0.000000000E+00	2.595127884E+03	2.595127884E+03	5.040000000E-03	0.000000000E+00	1.000000000E+00
	1	-1	0	0	501	0	0.000000000E+00	-0.000000000E+00	-1.324592918E+03	1.324592918E+03	2.550000000E-03	0.000000000E+00	-1.000000000E+00
	-24	1	1	2	0	0	-1.177472008E+03	-1.102703584E+03	-3.285823418E+02	1.648251743E+03	7.982435975E+01	0.000000000E+00	-1.000000000E+00
	9000005	1	1	2	0	0	1.177472008E+03	1.102703584E+03	1.599117307E+03	2.271469059E+03	1.000000000E-05	0.000000000E+00	0.000000000E+00

</event>
<event>
	4	1	3.267126300E-02	1.580345000E+03	7.818608000E-03	8.832715000E-02
	1	-1	0	0	501	0	0.000000000E+00	0.000000000E+00	1.618350524E+03	1.618350524E+03	5.040000000E-03	0.000000000E+00	-1.000000000E+00
	-2	-1	0	0	0	501	-0.000000000E+00	-0.000000000E+00	-3.858080928E+02	3.858080928E+02	2.550000000E-03	0.000000000E+00	1.000000000E+00
	-24	1	1	2	0	0	-1.430069941E+02	6.442641887E+02	1.164284656E+03	1.340693117E+03	7.982435975E+01	0.000000000E+00	-1.000000000E+00
	9000005	1	1	2	0	0	1.430069941E+02	-6.442641887E+02	6.825777496E+01	6.634654995E+02	1.000000000E-05	0.000000000E+00	0.000000000E+00

</event>
<event>
	4	1	3.267126300E-02	1.610526000E+03	7.818608000E-03	8.814108000E-02
	1	-1	0	0	501	0	0.000000000E+00	0.000000000E+00	2.460307025E+03	2.460307025E+03	5.040000000E-03	0.000000000E+00	-1.000000000E+00
	-2	-1	0	0	0	501	-0.000000000E+00	-0.000000000E+00	-2.635639838E+02	2.635639838E+02	2.550000000E-03	0.000000000E+00	1.000000000E+00
	-24	1	1	2	0	0	-6.903090054E+02	3.633132754E+02	7.768739674E+02	1.103824329E+03	7.982435975E+01	0.000000000E+00	-1.000000000E+00
	9000005	1	1	2	0	0	6.903090054E+02	-3.633132754E+02	1.419869074E+03	1.620046680E+03	1.000000000E-05	0.000000000E+00	0.000000000E+00

</event>
<event>
	4	1	3.267126300E-02	2.029911000E+03	7.818608000E-03	8.592763000E-02
	1	-1	0	0	501	0	0.000000000E+00	0.000000000E+00	1.174019471E+03	1.174019471E+03	5.040000000E-03	0.000000000E+00	-1.000000000E+00
	-2	-1	0	0	0	501	-0.000000000E+00	-0.000000000E+00	-8.774427533E+02	8.774427533E+02	2.550000000E-03	0.000000000E+00	1.000000000E+00
	-24	1	1	2	0	0	6.828710022E+02	7.988954165E+01	9.009055222E+02	1.136088831E+03	7.982435975E+01	0.000000000E+00	-1.000000000E+00
	9000005	1	1	2	0	0	-6.828710022E+02	-7.988954165E+01	-6.043288044E+02	9.153733929E+02	1.000000000E-05	0.000000000E+00	0.000000000E+00

</event>
<event>
	4	1	3.267126300E-02	1.702824000E+03	7.818608000E-03	8.759755000E-02
	1	-1	0	0	501	0	0.000000000E+00	0.000000000E+00	8.407979453E+02	8.407979454E+02	5.040000000E-03	0.000000000E+00	-1.000000000E+00
	-2	-1	0	0	0	501	-0.000000000E+00	-0.000000000E+00	-8.621601568E+02	8.621601568E+02	2.550000000E-03	0.000000000E+00	1.000000000E+00
	-24	1	1	2	0	0	-5.925165054E+02	-5.579503162E+02	2.329037115E+02	8.502943207E+02	7.982435975E+01	0.000000000E+00	-1.000000000E+00
	9000005	1	1	2	0	0	5.925165054E+02	5.579503162E+02	-2.542659230E+02	8.526637814E+02	1.000000000E-05	0.000000000E+00	0.000000000E+00

</event>
<event>
	4	1	3.267126300E-02	2.507082000E+03	7.818608000E-03	8.400467000E-02
	-2	-1	0	0	0	501	-0.000000000E+00	0.000000000E+00	1.266379230E+03	1.266379230E+03	5.040000000E-03	0.000000000E+00	1.000000000E+00
	1	-1	0	0	501	0	0.000000000E+00	-0.000000000E+00	-1.240832511E+03	1.240832512E+03	2.550000000E-03	0.000000000E+00	-1.000000000E+00
	-24	1	1	2	0	0	7.057438935E+02	-4.452400358E+02	9.465729898E+02	1.264391350E+03	7.982435975E+01	0.000000000E+00	1.000000000E+00
	9000005	1	1	2	0	0	-7.057438935E+02	4.452400358E+02	-9.210262713E+02	1.242820391E+03	1.000000000E-05	0.000000000E+00	0.000000000E+00

</event>
<event>
	4	1	3.267126300E-02	3.744616000E+03	7.818608000E-03	8.058146000E-02
	-2	-1	0	0	0	501	-0.000000000E+00	0.000000000E+00	1.473044126E+03	1.473044126E+03	5.040000000E-03	0.000000000E+00	1.000000000E+00
	1	-1	0	0	501	0	0.000000000E+00	-0.000000000E+00	-2.379790575E+03	2.379790575E+03	2.550000000E-03	0.000000000E+00	-1.000000000E+00
	-24	1	1	2	0	0	7.508522938E+02	-1.695318634E+02	-2.208700078E+03	2.340352149E+03	7.982435975E+01	0.000000000E+00	-1.000000000E+00
	9000005	1	1	2	0	0	-7.508522938E+02	1.695318634E+02	1.301953628E+03	1.512482552E+03	1.000000000E-05	0.000000000E+00	0.000000000E+00

</event>
<event>
	4	1	3.267126300E-02	2.104289000E+03	7.818608000E-03	8.559356000E-02
	1	-1	0	0	501	0	0.000000000E+00	0.000000000E+00	2.023684289E+03	2.023684289E+03	5.040000000E-03	0.000000000E+00	-1.000000000E+00
	-2	-1	0	0	0	501	-0.000000000E+00	-0.000000000E+00	-5.470263109E+02	5.470263109E+02	2.550000000E-03	0.000000000E+00	1.000000000E+00
	-24	1	1	2	0	0	4.298034845E+01	8.411530162E+02	1.506642903E+03	1.727926640E+03	7.982435975E+01	0.000000000E+00	-1.000000000E+00
	9000005	1	1	2	0	0	-4.298034845E+01	-8.411530162E+02	-2.998492516E+01	8.427839598E+02	1.000000000E-05	0.000000000E+00	0.000000000E+00

</event>
<event>
	4	1	3.267126300E-02	1.475158000E+03	7.818608000E-03	8.901143000E-02
	-2	-1	0	0	0	501	-0.000000000E+00	0.000000000E+00	2.346693446E+02	2.346693446E+02	5.040000000E-03	0.000000000E+00	1.000000000E+00
	1	-1	0	0	501	0	0.000000000E+00	-0.000000000E+00	-2.318251876E+03	2.318251876E+03	2.550000000E-03	0.000000000E+00	-1.000000000E+00
	-24	1	1	2	0	0	6.000433252E+02	-3.020665050E+01	-3.108577069E+02	6.811526086E+02	7.982435975E+01	0.000000000E+00	1.000000000E+00
	9000005	1	1	2	0	0	-6.000433252E+02	3.020665050E+01	-1.772724824E+03	1.871768612E+03	1.000000000E-05	0.000000000E+00	0.000000000E+00

</event>
<event>
	4	1	3.267126300E-02	1.771691000E+03	7.818608000E-03	8.721500000E-02
	-2	-1	0	0	0	501	-0.000000000E+00	0.000000000E+00	5.825149773E+02	5.825149773E+02	5.040000000E-03	0.000000000E+00	1.000000000E+00
	1	-1	0	0	501	0	0.000000000E+00	-0.000000000E+00	-1.347128755E+03	1.347128755E+03	2.550000000E-03	0.000000000E+00	-1.000000000E+00
	-24	1	1	2	0	0	4.433846141E+02	-7.412304585E+02	-5.883744721E+02	1.048126403E+03	7.982435975E+01	0.000000000E+00	-1.000000000E+00
	9000005	1	1	2	0	0	-4.433846141E+02	7.412304585E+02	-1.762393051E+02	8.815173290E+02	1.000000000E-05	0.000000000E+00	0.000000000E+00

</event>
<event>
	4	1	3.267126300E-02	1.636234000E+03	7.818608000E-03	8.798592000E-02
	1	-1	0	0	501	0	0.000000000E+00	0.000000000E+00	5.741056838E+02	5.741056838E+02	5.040000000E-03	0.000000000E+00	-1.000000000E+00
	-2	-1	0	0	0	501	-0.000000000E+00	-0.000000000E+00	-1.165840728E+03	1.165840728E+03	2.550000000E-03	0.000000000E+00	1.000000000E+00
	-24	1	1	2	0	0	-6.252215165E+02	-7.337373895E+01	2.558235340E+02	6.841807212E+02	7.982435975E+01	0.000000000E+00	-1.000000000E+00
	9000005	1	1	2	0	0	6.252215165E+02	7.337373895E+01	-8.475585785E+02	1.055765691E+03	1.000000000E-05	0.000000000E+00	0.000000000E+00

</event>
<event>
	4	1	3.267126300E-02	1.590347000E+03	7.818608000E-03	8.826500000E-02
	1	-1	0	0	501	0	0.000000000E+00	0.000000000E+00	5.325872436E+02	5.325872436E+02	5.040000000E-03	0.000000000E+00	-1.000000000E+00
	-2	-1	0	0	0	501	-0.000000000E+00	-0.000000000E+00	-1.187225296E+03	1.187225296E+03	2.550000000E-03	0.000000000E+00	1.000000000E+00
	-24	1	1	2	0	0	5.961235854E+02	-1.383761402E+02	2.175199994E+02	6.543685229E+02	7.982435975E+01	0.000000000E+00	-1.000000000E+00
	9000005	1	1	2	0	0	-5.961235854E+02	1.383761402E+02	-8.721580516E+02	1.065444017E+03	1.000000000E-05	0.000000000E+00	0.000000000E+00

</event>
<event>
	4	1	3.267126300E-02	1.767306000E+03	7.818608000E-03	8.723882000E-02
	1	-1	0	0	501	0	0.000000000E+00	0.000000000E+00	1.788929447E+03	1.788929447E+03	5.040000000E-03	0.000000000E+00	-1.000000000E+00
	-2	-1	0	0	0	501	-0.000000000E+00	-0.000000000E+00	-4.364859295E+02	4.364859295E+02	2.550000000E-03	0.000000000E+00	1.000000000E+00
	-24	1	1	2	0	0	-5.848167907E+02	-6.524186352E+02	8.035167583E+02	1.191499838E+03	7.982435975E+01	0.000000000E+00	1.000000000E+00
	9000005	1	1	2	0	0	5.848167907E+02	6.524186352E+02	5.489267593E+02	1.033915539E+03	1.000000000E-05	0.000000000E+00	0.000000000E+00

</event>
<event>
	4	1	3.267126300E-02	2.135501000E+03	7.818608000E-03	8.545764000E-02
	1	-1	0	0	501	0	0.000000000E+00	0.000000000E+00	2.257007236E+03	2.257007236E+03	5.040000000E-03	0.000000000E+00	-1.000000000E+00
	-2	-1	0	0	0	501	-0.000000000E+00	-0.000000000E+00	-5.051341932E+02	5.051341932E+02	2.550000000E-03	0.000000000E+00	1.000000000E+00
	-24	1	1	2	0	0	2.597606467E+02	8.313909010E+02	8.169905847E+01	8.784834024E+02	7.982435975E+01	0.000000000E+00	1.000000000E+00
	9000005	1	1	2	0	0	-2.597606467E+02	-8.313909010E+02	1.670173985E+03	1.883658027E+03	1.000000000E-05	0.000000000E+00	0.000000000E+00

</event>
<event>
	4	1	3.267126300E-02	1.486231000E+03	7.818608000E-03	8.893661000E-02
	1	-1	0	0	501	0	0.000000000E+00	0.000000000E+00	4.515975785E+02	4.515975785E+02	5.040000000E-03	0.000000000E+00	-1.000000000E+00
	-2	-1	0	0	0	501	-0.000000000E+00	-0.000000000E+00	-1.222815505E+03	1.222815505E+03	2.550000000E-03	0.000000000E+00	1.000000000E+00
	-24	1	1	2	0	0	6.162637092E+02	3.902681845E+01	7.469007491E+01	6.271001415E+02	7.982435975E+01	0.000000000E+00	-1.000000000E+00
	9000005	1	1	2	0	0	-6.162637092E+02	-3.902681845E+01	-8.459080018E+02	1.047312942E+03	1.000000000E-05	0.000000000E+00	0.000000000E+00

</event>
<event>
	4	1	3.267126300E-02	3.433709000E+03	7.818608000E-03	8.129682000E-02
	-2	-1	0	0	0	501	-0.000000000E+00	0.000000000E+00	2.912564671E+03	2.912564671E+03	5.040000000E-03	0.000000000E+00	1.000000000E+00
	1	-1	0	0	501	0	0.000000000E+00	-0.000000000E+00	-1.012025498E+03	1.012025498E+03	2.550000000E-03	0.000000000E+00	-1.000000000E+00
	-24	1	1	2	0	0	7.964333119E+02	-1.503252530E+03	6.943665884E+02	1.839182176E+03	7.982435975E+01	0.000000000E+00	-1.000000000E+00
	9000005	1	1	2	0	0	-7.964333119E+02	1.503252530E+03	1.206172585E+03	2.085407992E+03	1.000000000E-05	0.000000000E+00	0.000000000E+00

</event>
<event>
	4	1	3.267126300E-02	1.243130000E+03	7.818608000E-03	9.075921000E-02
	-2	-1	0	0	0	501	-0.000000000E+00	0.000000000E+00	2.663292174E+02	2.663292174E+02	5.040000000E-03	0.000000000E+00	1.000000000E+00
	1	-1	0	0	501	0	0.000000000E+00	-0.000000000E+00	-1.450621800E+03	1.450621800E+03	2.550000000E-03	0.000000000E+00	-1.000000000E+00
	-24	1	1	2	0	0	5.850361563E+02	2.022282132E+02	-5.947748810E+02	8.621442118E+02	7.982435975E+01	0.000000000E+00	-1.000000000E+00
	9000005	1	1	2	0	0	-5.850361563E+02	-2.022282132E+02	-5.895177018E+02	8.548068057E+02	1.000000000E-05	0.000000000E+00	0.000000000E+00

</event>
<event>
	6	1	3.267126300E-02	1.678583000E+03	7.818608000E-03	8.773675000E-02
	-1	-1	0	0	0	501	-0.000000000E+00	0.000000000E+00	7.827306658E+02	7.827306658E+02	2.550000000E-03	0.000000000E+00	1.000000000E+00
	2	-1	0	0	501	0	0.000000000E+00	-0.000000000E+00	-8.999389769E+02	8.999389769E+02	5.040000000E-03	0.000000000E+00	-1.000000000E+00
	24	2	1	2	0	0	-7.964053630E+02	-1.367273396E+02	1.613922760E+02	8.279333356E+02	8.043801165E+01	0.000000000E+00	0.000000000E+00
	-11	1	3	3	0	0	-6.672247923E+02	-1.051471034E+02	1.053624190E+02	6.836271470E+02	5.110000000E-04	0.000000000E+00	1.000000000E+00
	12	1	3	3	0	0	-1.291805707E+02	-3.158023624E+01	5.602985701E+01	1.443061886E+02	0.000000000E+00	0.000000000E+00	-1.000000000E+00
	9000005	1	1	2	0	0	7.964053630E+02	1.367273396E+02	-2.786005872E+02	8.547363072E+02	1.000000000E-05	0.000000000E+00	0.000000000E+00

</event>
<event>
	4	1	3.267126300E-02	1.436671000E+03	7.818608000E-03	8.927694000E-02
	-2	-1	0	0	0	501	-0.000000000E+00	0.000000000E+00	7.073328060E+02	7.073328061E+02	5.040000000E-03	0.000000000E+00	1.000000000E+00
	1	-1	0	0	501	0	0.000000000E+00	-0.000000000E+00	-7.295091412E+02	7.295091412E+02	2.550000000E-03	0.000000000E+00	-1.000000000E+00
	-24	1	1	2	0	0	-1.362580779E+02	-6.068028719E+02	3.439532916E+02	7.151585729E+02	7.982435975E+01	0.000000000E+00	1.000000000E+00
	9000005	1	1	2	0	0	1.362580779E+02	6.068028719E+02	-3.661296268E+02	7.216833744E+02	1.000000000E-05	0.000000000E+00	0.000000000E+00

</event>
<event>
	4	1	3.267126300E-02	1.753563000E+03	7.818608000E-03	8.731391000E-02
	1	-1	0	0	501	0	0.000000000E+00	0.000000000E+00	2.181788289E+03	2.181788289E+03	5.040000000E-03	0.000000000E+00	-1.000000000E+00
	-2	-1	0	0	0	501	-0.000000000E+00	-0.000000000E+00	-3.523468187E+02	3.523468187E+02	2.550000000E-03	0.000000000E+00	1.000000000E+00
	-24	1	1	2	0	0	7.623221768E+02	3.282255240E+02	5.163989661E+02	9.807685335E+02	7.982435975E+01	0.000000000E+00	1.000000000E+00
	9000005	1	1	2	0	0	-7.623221768E+02	-3.282255240E+02	1.313042504E+03	1.553366574E+03	1.000000000E-05	0.000000000E+00	0.000000000E+00

</event>
<event>
	4	1	3.267126300E-02	2.241550000E+03	7.818608000E-03	8.501331000E-02
	1	-1	0	0	501	0	0.000000000E+00	0.000000000E+00	6.398859750E+02	6.398859750E+02	5.040000000E-03	0.000000000E+00	-1.000000000E+00
	-2	-1	0	0	0	501	-0.000000000E+00	-0.000000000E+00	-1.963062655E+03	1.963062655E+03	2.550000000E-03	0.000000000E+00	1.000000000E+00
	-24	1	1	2	0	0	6.332883541E+02	-7.430279188E+02	-2.660086276E+01	9.799102826E+02	7.982435975E+01	0.000000000E+00	-1.000000000E+00
	9000005	1	1	2	0	0	-6.332883541E+02	7.430279188E+02	-1.296575818E+03	1.623038348E+03	1.000000000E-05	0.000000000E+00	0.000000000E+00

</event>
<event>
	4	1	3.267126300E-02	2.979304000E+03	7.818608000E-03	8.249665000E-02
	-2	-1	0	0	0	501	-0.000000000E+00	0.000000000E+00	9.989467113E+02	9.989467113E+02	5.040000000E-03	0.000000000E+00	1.000000000E+00
	1	-1	0	0	501	0	0.000000000E+00	-0.000000000E+00	-2.221403098E+03	2.221403098E+03	2.550000000E-03	0.000000000E+00	-1.000000000E+00
	-24	1	1	2	0	0	-5.873408162E+01	8.417747820E+02	-1.937197099E+03	2.114506799E+03	7.982435975E+01	0.000000000E+00	-1.000000000E+00
	9000005	1	1	2	0	0	5.873408162E+01	-8.417747820E+02	7.147407124E+02	1.105843010E+03	1.000000000E-05	0.000000000E+00	0.000000000E+00

</event>
<event>
	4	1	3.267126300E-02	2.375537000E+03	7.818608000E-03	8.448719000E-02
	3	-1	0	0	501	0	0.000000000E+00	0.000000000E+00	1.426858307E+03	1.426858311E+03	1.010000000E-01	0.000000000E+00	-1.000000000E+00
	-4	-1	0	0	0	501	-0.000000000E+00	-0.000000000E+00	-9.887407983E+02	9.887416139E+02	1.270000000E+00	0.000000000E+00	1.000000000E+00
	-24	1	1	2	0	0	4.031584530E+02	-1.115449200E+03	2.488860464E+02	1.214528652E+03	7.982435975E+01	0.000000000E+00	-1.000000000E+00
	9000005	1	1	2	0	0	-4.031584530E+02	1.115449200E+03	1.892314627E+02	1.201071272E+03	1.000000000E-05	0.000000000E+00	0.000000000E+00

</event>
<event>
	4	1	3.267126300E-02	1.649739000E+03	7.818608000E-03	8.790561000E-02
	1	-1	0	0	501	0	0.000000000E+00	0.000000000E+00	2.048293559E+03	2.048293559E+03	5.040000000E-03	0.000000000E+00	-1.000000000E+00
	-2	-1	0	0	0	501	-0.000000000E+00	-0.000000000E+00	-3.321837824E+02	3.321837824E+02	2.550000000E-03	0.000000000E+00	1.000000000E+00
	-24	1	1	2	0	0	-2.421648086E+02	5.955111575E+02	1.601390832E+03	1.727455313E+03	7.982435975E+01	0.000000000E+00	-1.000000000E+00
	9000005	1	1	2	0	0	2.421648086E+02	-5.955111575E+02	1.147189444E+02	6.530220282E+02	1.000000000E-05	0.000000000E+00	0.000000000E+00

</event>
<event>
	4	1	3.267126300E-02	1.284021000E+03	7.818608000E-03	9.042333000E-02
	1	-1	0	0	501	0	0.000000000E+00	0.000000000E+00	1.224037948E+03	1.224037948E+03	5.040000000E-03	0.000000000E+00	-1.000000000E+00
	-2	-1	0	0	0	501	-0.000000000E+00	-0.000000000E+00	-3.367359131E+02	3.367359131E+02	2.550000000E-03	0.000000000E+00	1.000000000E+00
	-24	1	1	2	0	0	-4.027548439E+02	4.962497304E+02	4.731498595E+02	7.991983341E+02	7.982435975E+01	0.000000000E+00	1.000000000E+00
	9000005	1	1	2	0	0	4.027548439E+02	-4.962497304E+02	4.141521758E+02	7.615755274E+02	1.000000000E-05	0.000000000E+00	0.000000000E+00

</event>
<event>
	4	1	3.267126300E-02	2.217417000E+03	7.818608000E-03	8.511213000E-02
	-4	-1	0	0	0	501	-0.000000000E+00	0.000000000E+00	1.930328830E+03	1.930329248E+03	1.010000000E-01	0.000000000E+00	1.000000000E+00
	3	-1	0	0	501	0	0.000000000E+00	-0.000000000E+00	-6.368004639E+02	6.368004719E+02	1.270000000E+00	0.000000000E+00	-1.000000000E+00
	-24	1	1	2	0	0	6.519942765E+02	6.086301178E+02	1.407226833E+03	1.667988742E+03	7.982435975E+01	0.000000000E+00	1.000000000E+00
	9000005	1	1	2	0	0	-6.519942765E+02	-6.086301178E+02	-1.136984663E+02	8.991409779E+02	1.000000000E-05	0.000000000E+00	0.000000000E+00

</event>
<event>
	4	1	3.267126300E-02	1.434178000E+03	7.818608000E-03	8.929444000E-02
	1	-1	0	0	501	0	0.000000000E+00	0.000000000E+00	1.676999669E+03	1.676999669E+03	5.040000000E-03	0.000000000E+00	-1.000000000E+00
	-2	-1	0	0	0	501	-0.000000000E+00	-0.000000000E+00	-3.066289992E+02	3.066289992E+02	2.550000000E-03	0.000000000E+00	1.000000000E+00
	-24	1	1	2	0	0	3.848931716E+02	-6.010638261E+02	7.428950142E+02	1.033288637E+03	7.982435975E+01	0.000000000E+00	-1.000000000E+00
	9000005	1	1	2	0	0	-3.848931716E+02	6.010638261E+02	6.274756558E+02	9.503400314E+02	1.000000000E-05	0.000000000E+00	0.000000000E+00

</event>
<event>
	4	1	3.267126300E-02	1.733510000E+03	7.818608000E-03	8.742480000E-02
	-4	-1	0	0	0	501	-0.000000000E+00	0.000000000E+00	1.066849644E+03	1.066850400E+03	1.010000000E-01	0.000000000E+00	1.000000000E+00
	3	-1	0	0	501	0	0.000000000E+00	-0.000000000E+00	-7.041884278E+02	7.041884351E+02	1.270000000E+00	0.000000000E+00	-1.000000000E+00
	-24	1	1	2	0	0	-3.104821478E+02	-6.503983264E+02	6.702559151E+02	9.874371206E+02	7.982435975E+01	0.000000000E+00	-1.000000000E+00
	9000005	1	1	2	0	0	3.104821478E+02	6.503983264E+02	-3.075946994E+02	7.836017139E+02	1.000000000E-05	0.000000000E+00	0.000000000E+00

</event>
<event>
	4	1	3.267126300E-02	1.948992000E+03	7.818608000E-03	8.630847000E-02
	1	-1	0	0	501	0	0.000000000E+00	0.000000000E+00	3.851422015E+02	3.851422016E+02	5.040000000E-03	0.000000000E+00	-1.000000000E+00
	-4	-1	0	0	0	501	-0.000000000E+00	-0.000000000E+00	-2.465691679E+03	2.465692006E+03	1.270000000E+00	0.000000000E+00	1.000000000E+00
	-24	1	1	2	0	0	-6.979927228E+02	3.487955236E+02	-1.921201989E+02	8.075483005E+02	7.982435975E+01	0.000000000E+00	-1.000000000E+00
	9000005	1	1	2	0	0	6.979927228E+02	-3.487955236E+02	-1.888429279E+03	2.043285908E+03	1.000000000E-05	0.000000000E+00	0.000000000E+00

</event>
<event>
	4	1	3.267126300E-02	3.358248000E+03	7.818608000E-03	8.148230000E-02
	-2	-1	0	0	0	501	-0.000000000E+00	0.000000000E+00	1.606210712E+03	1.606210712E+03	5.040000000E-03	0.000000000E+00	1.000000000E+00
	1	-1	0	0	501	0	0.000000000E+00	-0.000000000E+00	-1.755347407E+03	1.755347407E+03	2.550000000E-03	0.000000000E+00	-1.000000000E+00
	-24	1	1	2	0	0	1.496728450E+03	4.691957935E+02	5.225778986E+02	1.655234223E+03	7.982435975E+01	0.000000000E+00	1.000000000E+00
	9000005	1	1	2	0	0	-1.496728450E+03	-4.691957935E+02	-6.717145932E+02	1.706323896E+03	1.000000000E-05	0.000000000E+00	0.000000000E+00

</event>
<event>
	4	1	3.267126300E-02	1.624370000E+03	7.818608000E-03	8.805715000E-02
	-2	-1	0	0	0	501	-0.000000000E+00	0.000000000E+00	4.528645128E+02	4.528645128E+02	5.040000000E-03	0.000000000E+00	1.000000000E+00
	1	-1	0	0	501	0	0.000000000E+00	-0.000000000E+00	-1.456604239E+03	1.456604239E+03	2.550000000E-03	0.000000000E+00	-1.000000000E+00
	-24	1	1	2	0	0	2.206433151E+01	7.053750302E+02	-9.709620354E+02	1.202987934E+03	7.982435975E+01	0.000000000E+00	1.000000000E+00
	9000005	1	1	2	0	0	-2.206433151E+01	-7.053750302E+02	-3.277769056E+01	7.064808171E+02	1.000000000E-05	0.000000000E+00	0.000000000E+00

</event>
<event>
	4	1	3.267126300E-02	1.592365000E+03	7.818608000E-03	8.825253000E-02
	-2	-1	0	0	0	501	-0.000000000E+00	0.000000000E+00	6.023819850E+02	6.023819850E+02	5.040000000E-03	0.000000000E+00	1.000000000E+00
	1	-1	0	0	501	0	0.000000000E+00	-0.000000000E+00	-1.052332634E+03	1.052332634E+03	2.550000000E-03	0.000000000E+00	-1.000000000E+00
	-24	1	1	2	0	0	7.899668868E+02	2.018532769E+01	-1.432625818E+02	8.070633343E+02	7.982435975E+01	0.000000000E+00	-1.000000000E+00
	9000005	1	1	2	0	0	-7.899668868E+02	-2.018532769E+01	-3.066880670E+02	8.476512845E+02	1.000000000E-05	0.000000000E+00	0.000000000E+00

</event>
<event>
	4	1	3.267126300E-02	1.381862000E+03	7.818608000E-03	8.967053000E-02
	1	-1	0	0	501	0	0.000000000E+00	0.000000000E+00	1.161766679E+03	1.161766680E+03	5.040000000E-03	0.000000000E+00	-1.000000000E+00
	-2	-1	0	0	0	501	-0.000000000E+00	-0.000000000E+00	-4.109136714E+02	4.109136714E+02	2.550000000E-03	0.000000000E+00	1.000000000E+00
	-24	1	1	2	0	0	-6.060520638E+02	-3.266923684E+02	3.614886506E+02	7.817115712E+02	7.982435975E+01	0.000000000E+00	-1.000000000E+00
	9000005	1	1	2	0	0	6.060520638E+02	3.266923684E+02	3.893643575E+02	7.909687797E+02	1.000000000E-05	0.000000000E+00	0.000000000E+00

</event>
<event>
	4	1	3.267126300E-02	2.925122000E+03	7.818608000E-03	8.265442000E-02
	-2	-1	0	0	0	501	-0.000000000E+00	0.000000000E+00	8.272144913E+02	8.272144913E+02	5.040000000E-03	0.000000000E+00	1.000000000E+00
	1	-1	0	0	501	0	0.000000000E+00	-0.000000000E+00	-2.585888722E+03	2.585888722E+03	2.550000000E-03	0.000000000E+00	-1.000000000E+00
	-24	1	1	2	0	0	1.314119633E+03	4.849749486E+02	-1.366417372E+03	1.958463549E+03	7.982435975E+01	0.000000000E+00	1.000000000E+00
	9000005	1	1	2	0	0	-1.314119633E+03	-4.849749486E+02	-3.922568584E+02	1.454639664E+03	1.000000000E-05	0.000000000E+00	0.000000000E+00

</event>
<event>
	4	1	3.267126300E-02	2.053860000E+03	7.818608000E-03	8.581845000E-02
	1	-1	0	0	501	0	0.000000000E+00	0.000000000E+00	7.533203038E+02	7.533203038E+02	5.040000000E-03	0.000000000E+00	-1.000000000E+00
	-2	-1	0	0	0	501	-0.000000000E+00	-0.000000000E+00	-1.399916711E+03	1.399916711E+03	2.550000000E-03	0.000000000E+00	1.000000000E+00
	-24	1	1	2	0	0	-4.115736518E+02	-6.010948269E+02	-1.080292425E+03	1.305416222E+03	7.982435975E+01	0.000000000E+00	1.000000000E+00
	9000005	1	1	2	0	0	4.115736518E+02	6.010948269E+02	4.336960171E+02	8.478207930E+02	1.000000000E-05	0.000000000E+00	0.000000000E+00

</event>
<event>
	4	1	3.267126300E-02	2.204569000E+03	7.818608000E-03	8.516529000E-02
	-2	-1	0	0	0	501	-0.000000000E+00	0.000000000E+00	6.119010622E+02	6.119010622E+02	5.040000000E-03	0.000000000E+00	1.000000000E+00
	1	-1	0	0	501	0	0.000000000E+00	-0.000000000E+00	-1.985665583E+03	1.985665583E+03	2.550000000E-03	0.000000000E+00	-1.000000000E+00
	-24	1	1	2	0	0	4.846876433E+02	-8.256086677E+02	-1.328064749E+03	1.639109419E+03	7.982435975E+01	0.000000000E+00	-1.000000000E+00
	9000005	1	1	2	0	0	-4.846876433E+02	8.256086677E+02	-4.569977168E+01	9.584572253E+02	1.000000000E-05	0.000000000E+00	0.000000000E+00

</event>
<event>
	4	1	3.267126300E-02	1.514389000E+03	7.818608000E-03	8.874940000E-02
	-2	-1	0	0	0	501	-0.000000000E+00	0.000000000E+00	3.456312103E+02	3.456312103E+02	5.040000000E-03	0.000000000E+00	1.000000000E+00
	1	-1	0	0	501	0	0.000000000E+00	-0.000000000E+00	-1.658830110E+03	1.658830110E+03	2.550000000E-03	0.000000000E+00	-1.000000000E+00
	-24	1	1	2	0	0	4.735031071E+02	-5.661149920E+02	-8.696653088E+02	1.143407650E+03	7.982435975E+01	0.000000000E+00	-1.000000000E+00
	9000005	1	1	2	0	0	-4.735031071E+02	5.661149920E+02	-4.435335907E+02	8.610536700E+02	1.000000000E-05	0.000000000E+00	0.000000000E+00

</event>
<event>
	4	1	3.267126300E-02	1.261276000E+03	7.818608000E-03	9.060850000E-02
	-4	-1	0	0	0	501	-0.000000000E+00	0.000000000E+00	6.867589481E+02	6.867601224E+02	5.040000000E-03	0.000000000E+00	1.000000000E+00
	1	-1	0	0	501	0	0.000000000E+00	-0.000000000E+00	-5.791020996E+02	5.791020997E+02	1.270000000E+00	0.000000000E+00	-1.000000000E+00
	-24	1	1	2	0	0	4.975250477E+02	3.820837313E+02	8.586986397E+01	6.381729490E+02	7.982435975E+01	0.000000000E+00	1.000000000E+00
	9000005	1	1	2	0	0	-4.975250477E+02	-3.820837313E+02	2.178698451E+01	6.276892731E+02	1.000000000E-05	0.000000000E+00	0.000000000E+00

</event>
<event>
	4	1	3.267126300E-02	1.644146000E+03	7.818608000E-03	8.793877000E-02
	-2	-1	0	0	0	501	-0.000000000E+00	0.000000000E+00	4.836588503E+02	4.836588503E+02	5.040000000E-03	0.000000000E+00	1.000000000E+00
	1	-1	0	0	501	0	0.000000000E+00	-0.000000000E+00	-1.397274013E+03	1.397274013E+03	2.550000000E-03	0.000000000E+00	-1.000000000E+00
	-24	1	1	2	0	0	8.002335069E+02	-7.188478702E+01	-2.696224515E+02	8.512398505E+02	7.982435975E+01	0.000000000E+00	-1.000000000E+00
	9000005	1	1	2	0	0	-8.002335069E+02	7.188478702E+01	-6.439927107E+02	1.029693012E+03	1.000000000E-05	0.000000000E+00	0.000000000E+00

</event>
<event>
	4	1	3.267126300E-02	1.701037000E+03	7.818608000E-03	8.760773000E-02
	1	-1	0	0	501	0	0.000000000E+00	0.000000000E+00	1.997157718E+03	1.997157718E+03	5.040000000E-03	0.000000000E+00	-1.000000000E+00
	-2	-1	0	0	0	501	-0.000000000E+00	-0.000000000E+00	-3.622057215E+02	3.622057215E+02	2.550000000E-03	0.000000000E+00	1.000000000E+00
	-24	1	1	2	0	0	5.067042616E+02	-6.558154950E+02	5.659558229E+02	1.006737848E+03	7.982435975E+01	0.000000000E+00	1.000000000E+00
	9000005	1	1	2	0	0	-5.067042616E+02	6.558154950E+02	1.068996174E+03	1.352625592E+03	1.000000000E-05	0.000000000E+00	0.000000000E+00

</event>
<event>
	4	1	3.267126300E-02	2.261832000E+03	7.818608000E-03	8.493124000E-02
	1	-1	0	0	501	0	0.000000000E+00	0.000000000E+00	1.781943119E+03	1.781943119E+03	5.040000000E-03	0.000000000E+00	-1.000000000E+00
	-2	-1	0	0	0	501	-0.000000000E+00	-0.000000000E+00	-7.177397092E+02	7.177397092E+02	2.550000000E-03	0.000000000E+00	1.000000000E+00
	-24	1	1	2	0	0	2.479977343E+02	-1.047560550E+03	1.549014953E+02	1.090528488E+03	7.982435975E+01	0.000000000E+00	1.000000000E+00
	9000005	1	1	2	0	0	-2.479977343E+02	1.047560550E+03	9.093019143E+02	1.409154340E+03	1.000000000E-05	0.000000000E+00	0.000000000E+00

</event>
<event>
	4	1	3.267126300E-02	1.946687000E+03	7.818608000E-03	8.631960000E-02
	1	-1	0	0	501	0	0.000000000E+00	0.000000000E+00	8.950449552E+02	8.950449552E+02	5.040000000E-03	0.000000000E+00	-1.000000000E+00
	-2	-1	0	0	0	501	-0.000000000E+00	-0.000000000E+00	-1.058492060E+03	1.058492060E+03	2.550000000E-03	0.000000000E+00	1.000000000E+00
	-24	1	1	2	0	0	5.275776570E+02	-6.618113561E+02	3.971888315E+02	9.383300866E+02	7.982435975E+01	0.000000000E+00	-1.000000000E+00
	9000005	1	1	2	0	0	-5.275776570E+02	6.618113561E+02	-5.606359368E+02	1.015206929E+03	1.000000000E-05	0.000000000E+00	0.000000000E+00

</event>
<event>
	4	1	3.267126300E-02	1.957569000E+03	7.818608000E-03	8.626719000E-02
	-2	-1	0	0	0	501	-0.000000000E+00	0.000000000E+00	3.567742356E+02	3.567742356E+02	5.040000000E-03	0.000000000E+00	1.000000000E+00
	1	-1	0	0	501	0	0.000000000E+00	-0.000000000E+00	-2.685226253E+03	2.685226253E+03	2.550000000E-03	0.000000000E+00	-1.000000000E+00
	-24	1	1	2	0	0	9.645308354E+02	1.643342513E+01	-1.408134404E+03	1.708743462E+03	7.982435975E+01	0.000000000E+00	1.000000000E+00
	9000005	1	1	2	0	0	-9.645308354E+02	-1.643342513E+01	-9.203176133E+02	1.333257027E+03	1.000000000E-05	0.000000000E+00	0.000000000E+00

</event>
<event>
	4	1	3.267126300E-02	1.480097000E+03	7.818608000E-03	8.897797000E-02
	-2	-1	0	0	0	501	-0.000000000E+00	0.000000000E+00	4.146856788E+02	4.146856788E+02	5.040000000E-03	0.000000000E+00	1.000000000E+00
	1	-1	0	0	501	0	0.000000000E+00	-0.000000000E+00	-1.320691319E+03	1.320691319E+03	2.550000000E-03	0.000000000E+00	-1.000000000E+00
	-24	1	1	2	0	0	-1.813095713E+02	-7.134237916E+02	-5.146064047E+02	9.016863907E+02	7.982435975E+01	0.000000000E+00	-1.000000000E+00
	9000005	1	1	2	0	0	1.813095713E+02	7.134237916E+02	-3.913992359E+02	8.336906074E+02	1.000000000E-05	0.000000000E+00	0.000000000E+00

</event>
<event>
	4	1	3.267126300E-02	1.968308000E+03	7.818608000E-03	8.621583000E-02
	-2	-1	0	0	0	501	-0.000000000E+00	0.000000000E+00	2.005479762E+03	2.005479762E+03	5.040000000E-03	0.000000000E+00	1.000000000E+00
	1	-1	0	0	501	0	0.000000000E+00	-0.000000000E+00	-4.829563622E+02	4.829563622E+02	2.550000000E-03	0.000000000E+00	-1.000000000E+00
	-24	1	1	2	0	0	5.354316601E+02	7.622329919E+02	3.673676104E+02	1.004498425E+03	7.982435975E+01	0.000000000E+00	-1.000000000E+00
	9000005	1	1	2	0	0	-5.354316601E+02	-7.622329919E+02	1.155155789E+03	1.483937699E+03	1.000000000E-05	0.000000000E+00	0.000000000E+00

</event>
<event>
	4	1	3.267126300E-02	2.971243000E+03	7.818608000E-03	8.251991000E-02
	1	-1	0	0	501	0	0.000000000E+00	0.000000000E+00	1.571126569E+03	1.571126569E+03	5.040000000E-03	0.000000000E+00	-1.000000000E+00
	-2	-1	0	0	0	501	-0.000000000E+00	-0.000000000E+00	-1.404770135E+03	1.404770135E+03	2.550000000E-03	0.000000000E+00	1.000000000E+00
	-24	1	1	2	0	0	7.964980355E+02	-2.931978352E+02	1.303141206E+03	1.557216434E+03	7.982435975E+01	0.000000000E+00	-1.000000000E+00
	9000005	1	1	2	0	0	-7.964980355E+02	2.931978352E+02	-1.136784772E+03	1.418680270E+03	1.000000000E-05	0.000000000E+00	0.000000000E+00

</event>
<event>
	4	1	3.267126300E-02	2.263094000E+03	7.818608000E-03	8.492617000E-02
	1	-1	0	0	501	0	0.000000000E+00	0.000000000E+00	4.452129274E+02	4.452129274E+02	5.040000000E-03	0.000000000E+00	-1.000000000E+00
	-2	-1	0	0	0	501	-0.000000000E+00	-0.000000000E+00	-2.875922973E+03	2.875922973E+03	2.550000000E-03	0.000000000E+00	1.000000000E+00
	-24	1	1	2	0	0	-4.807596019E+02	-1.020467161E+03	-1.317807333E+03	1.736511191E+03	7.982435975E+01	0.000000000E+00	-1.000000000E+00
	9000005	1	1	2	0	0	4.807596019E+02	1.020467161E+03	-1.112902712E+03	1.584624709E+03	1.000000000E-05	0.000000000E+00	0.000000000E+00

</event>
<event>
	4	1	3.267126300E-02	2.046015000E+03	7.818608000E-03	8.585404000E-02
	1	-1	0	0	501	0	0.000000000E+00	0.000000000E+00	2.201177473E+03	2.201177473E+03	5.040000000E-03	0.000000000E+00	-1.000000000E+00
	-2	-1	0	0	0	501	-0.000000000E+00	-0.000000000E+00	-4.754473094E+02	4.754473094E+02	2.550000000E-03	0.000000000E+00	1.000000000E+00
	-24	1	1	2	0	0	9.744051818E+02	-3.128633994E+01	1.262950060E+03	1.597453935E+03	7.982435975E+01	0.000000000E+00	-1.000000000E+00
	9000005	1	1	2	0	0	-9.744051818E+02	3.128633994E+01	4.627801041E+02	1.079170848E+03	1.000000000E-05	0.000000000E+00	0.000000000E+00

</event>
<event>
	4	1	3.267126300E-02	3.399313000E+03	7.818608000E-03	8.138075000E-02
	1	-1	0	0	501	0	0.000000000E+00	0.000000000E+00	2.259345217E+03	2.259345217E+03	5.040000000E-03	0.000000000E+00	-1.000000000E+00
	-2	-1	0	0	0	501	-0.000000000E+00	-0.000000000E+00	-1.278614868E+03	1.278614868E+03	2.550000000E-03	0.000000000E+00	1.000000000E+00
	-24	1	1	2	0	0	1.426659455E+03	-7.192057189E+02	-1.099923876E+02	1.603460109E+03	7.982435975E+01	0.000000000E+00	1.000000000E+00
	9000005	1	1	2	0	0	-1.426659455E+03	7.192057189E+02	1.090722737E+03	1.934499976E+03	1.000000000E-05	0.000000000E+00	0.000000000E+00

</event>
<event>
	4	1	3.267126300E-02	1.570079000E+03	7.818608000E-03	8.839143000E-02
	-2	-1	0	0	0	501	-0.000000000E+00	0.000000000E+00	3.622467964E+02	3.622467964E+02	5.040000000E-03	0.000000000E+00	1.000000000E+00
	1	-1	0	0	501	0	0.000000000E+00	-0.000000000E+00	-1.701290935E+03	1.701290935E+03	2.550000000E-03	0.000000000E+00	-1.000000000E+00
	-24	1	1	2	0	0	-3.542845526E+02	6.084462938E+02	-2.209654764E+02	7.422412727E+02	7.982435975E+01	0.000000000E+00	1.000000000E+00
	9000005	1	1	2	0	0	3.542845526E+02	-6.084462938E+02	-1.118078662E+03	1.321296459E+03	1.000000000E-05	0.000000000E+00	0.000000000E+00

</event>
<event>
	4	1	3.267126300E-02	2.333544000E+03	7.818608000E-03	8.464812000E-02
	-4	-1	0	0	0	501	-0.000000000E+00	0.000000000E+00	4.009794855E+02	4.009814967E+02	1.010000000E-01	0.000000000E+00	1.000000000E+00
	3	-1	0	0	501	0	0.000000000E+00	-0.000000000E+00	-3.395067924E+03	3.395067925E+03	1.270000000E+00	0.000000000E+00	-1.000000000E+00
	-24	1	1	2	0	0	1.007311956E+03	4.505089757E+02	-8.889633469E+02	1.419247503E+03	7.982435975E+01	0.000000000E+00	1.000000000E+00
	9000005	1	1	2	0	0	-1.007311956E+03	-4.505089757E+02	-2.105125091E+03	2.376801919E+03	1.000000000E-05	0.000000000E+00	0.000000000E+00

</event>
<event>
	4	1	3.267126300E-02	1.703815000E+03	7.818608000E-03	8.759192000E-02
	-2	-1	0	0	0	501	-0.000000000E+00	0.000000000E+00	6.014773762E+02	6.014773762E+02	5.040000000E-03	0.000000000E+00	1.000000000E+00
	1	-1	0	0	501	0	0.000000000E+00	-0.000000000E+00	-1.206605817E+03	1.206605818E+03	2.550000000E-03	0.000000000E+00	-1.000000000E+00
	-24	1	1	2	0	0	7.080129481E+02	4.692339444E+02	-2.680195456E+02	8.942422684E+02	7.982435975E+01	0.000000000E+00	-1.000000000E+00
	9000005	1	1	2	0	0	-7.080129481E+02	-4.692339444E+02	-3.371088956E+02	9.138409253E+02	1.000000000E-05	0.000000000E+00	0.000000000E+00

</event>
<event>
	4	1	3.267126300E-02	1.469826000E+03	7.818608000E-03	8.904770000E-02
	-2	-1	0	0	0	501	-0.000000000E+00	0.000000000E+00	1.953647314E+02	1.953647314E+02	5.040000000E-03	0.000000000E+00	1.000000000E+00
	1	-1	0	0	501	0	0.000000000E+00	-0.000000000E+00	-2.764557580E+03	2.764557580E+03	2.550000000E-03	0.000000000E+00	-1.000000000E+00
	-24	1	1	2	0	0	1.946576698E+02	6.496453399E+02	-1.847135567E+03	1.969317751E+03	7.982435975E+01	0.000000000E+00	-1.000000000E+00
	9000005	1	1	2	0	0	-1.946576698E+02	-6.496453399E+02	-7.220572824E+02	9.906045604E+02	1.000000000E-05	0.000000000E+00	0.000000000E+00

</event>
<event>
	4	1	3.267126300E-02	1.487608000E+03	7.818608000E-03	8.892735000E-02
	1	-1	0	0	501	0	0.000000000E+00	0.000000000E+00	1.273508351E+03	1.273508351E+03	5.040000000E-03	0.000000000E+00	-1.000000000E+00
	-2	-1	0	0	0	501	-0.000000000E+00	-0.000000000E+00	-4.344254564E+02	4.344254565E+02	2.550000000E-03	0.000000000E+00	1.000000000E+00
	-24	1	1	2	0	0	-5.491953432E+02	-4.222845408E+02	1.167213600E+02	7.070612156E+02	7.982435975E+01	0.000000000E+00	-1.000000000E+00
	9000005	1	1	2	0	0	5.491953432E+02	4.222845408E+02	7.223615345E+02	1.000872592E+03	1.000000000E-05	0.000000000E+00	0.000000000E+00

</event>
<event>
	4	1	3.267126300E-02	1.253928000E+03	7.818608000E-03	9.066920000E-02
	-2	-1	0	0	0	501	-0.000000000E+00	0.000000000E+00	1.593475827E+03	1.593475827E+03	5.040000000E-03	0.000000000E+00	1.000000000E+00
	1	-1	0	0	501	0	0.000000000E+00	-0.000000000E+00	-2.466832749E+02	2.466832749E+02	2.550000000E-03	0.000000000E+00	-1.000000000E+00
	-24	1	1	2	0	0	-3.143170492E+02	-5.304875531E+02	8.205997259E+02	1.029547517E+03	7.982435975E+01	0.000000000E+00	1.000000000E+00
	9000005	1	1	2	0	0	3.143170492E+02	5.304875531E+02	5.261928266E+02	8.106115853E+02	1.000000000E-05	0.000000000E+00	0.000000000E+00

</event>
<event>
	4	1	3.267126300E-02	2.391896000E+03	7.818608000E-03	8.442544000E-02
	1	-1	0	0	501	0	0.000000000E+00	0.000000000E+00	1.200215855E+03	1.200215855E+03	5.040000000E-03	0.000000000E+00	-1.000000000E+00
	-2	-1	0	0	0	501	-0.000000000E+00	-0.000000000E+00	-1.191695252E+03	1.191695252E+03	2.550000000E-03	0.000000000E+00	1.000000000E+00
	-24	1	1	2	0	0	-3.777097026E+02	-1.021057071E+03	4.960864090E+02	1.199039539E+03	7.982435975E+01	0.000000000E+00	-1.000000000E+00
	9000005	1	1	2	0	0	3.777097026E+02	1.021057071E+03	-4.875658061E+02	1.192871568E+03	1.000000000E-05	0.000000000E+00	0.000000000E+00

</event>
<event>
	4	1	3.267126300E-02	1.342968000E+03	7.818608000E-03	8.996168000E-02
	1	-1	0	0	501	0	0.000000000E+00	0.000000000E+00	6.190194627E+02	6.190194627E+02	5.040000000E-03	0.000000000E+00	-1.000000000E+00
	-2	-1	0	0	0	501	-0.000000000E+00	-0.000000000E+00	-7.283954443E+02	7.283954443E+02	2.550000000E-03	0.000000000E+00	1.000000000E+00
	-24	1	1	2	0	0	2.947853619E+02	5.585680145E+02	1.667892043E+02	6.580936131E+02	7.982435975E+01	0.000000000E+00	-1.000000000E+00
	9000005	1	1	2	0	0	-2.947853619E+02	-5.585680145E+02	-2.761651859E+02	6.893212940E+02	1.000000000E-05	0.000000000E+00	0.000000000E+00

</event>
<event>
	4	1	3.267126300E-02	1.332937000E+03	7.818608000E-03	9.003846000E-02
	1	-1	0	0	501	0	0.000000000E+00	0.000000000E+00	7.329692742E+02	7.329692742E+02	5.040000000E-03	0.000000000E+00	-1.000000000E+00
	-2	-1	0	0	0	501	-0.000000000E+00	-0.000000000E+00	-6.060011468E+02	6.060011468E+02	2.550000000E-03	0.000000000E+00	1.000000000E+00
	-24	1	1	2	0	0	-4.363063525E+02	-4.700376334E+02	-1.094091780E+02	6.554699891E+02	7.982435975E+01	0.000000000E+00	1.000000000E+00
	9000005	1	1	2	0	0	4.363063525E+02	4.700376334E+02	2.363773054E+02	6.835004320E+02	1.000000000E-05	0.000000000E+00	0.000000000E+00

</event>
<event>
	4	1	3.267126300E-02	1.647695000E+03	7.818608000E-03	8.791771000E-02
	1	-1	0	0	501	0	0.000000000E+00	0.000000000E+00	1.315753674E+03	1.315753674E+03	5.040000000E-03	0.000000000E+00	-1.000000000E+00
	-2	-1	0	0	0	501	-0.000000000E+00	-0.000000000E+00	-5.158448196E+02	5.158448196E+02	2.550000000E-03	0.000000000E+00	1.000000000E+00
	-24	1	1	2	0	0	-8.026337857E+02	1.595499894E+02	4.860262363E+02	9.551285903E+02	7.982435975E+01	0.000000000E+00	1.000000000E+00
	9000005	1	1	2	0	0	8.026337857E+02	-1.595499894E+02	3.138826176E+02	8.764699030E+02	1.000000000E-05	0.000000000E+00	0.000000000E+00

</event>
<event>
	4	1	3.267126300E-02	2.064003000E+03	7.818608000E-03	8.577268000E-02
	1	-1	0	0	501	0	0.000000000E+00	0.000000000E+00	6.635858728E+02	6.635858728E+02	5.040000000E-03	0.000000000E+00	-1.000000000E+00
	-2	-1	0	0	0	501	-0.000000000E+00	-0.000000000E+00	-1.604957950E+03	1.604957950E+03	2.550000000E-03	0.000000000E+00	1.000000000E+00
	-24	1	1	2	0	0	9.621802064E+02	5.217531330E+01	-7.005964174E+01	9.694293655E+02	7.982435975E+01	0.000000000E+00	-1.000000000E+00
	9000005	1	1	2	0	0	-9.621802064E+02	-5.217531330E+01	-8.713124354E+02	1.299114457E+03	1.000000000E-05	0.000000000E+00	0.000000000E+00

</event>
<event>
	6	1	3.267126300E-02	2.932622000E+03	7.818608000E-03	8.263237000E-02
	-1	-1	0	0	0	501	-0.000000000E+00	0.000000000E+00	6.998940001E+02	6.998940002E+02	2.550000000E-03	0.000000000E+00	1.000000000E+00
	2	-1	0	0	501	0	0.000000000E+00	-0.000000000E+00	-3.071990655E+03	3.071990655E+03	5.040000000E-03	0.000000000E+00	-1.000000000E+00
	24	2	1	2	0	0	-9.635600728E+02	-5.713996609E+02	2.788904191E+01	1.123323361E+03	7.830700749E+01	0.000000000E+00	0.000000000E+00
	-11	1	3	3	0	0	-7.064469703E+02	-4.391808222E+02	5.019453205E+01	8.333466311E+02	5.110000000E-04	0.000000000E+00	1.000000000E+00
	12	1	3	3	0	0	-2.571131024E+02	-1.322188386E+02	-2.230549015E+01	2.899767295E+02	0.000000000E+00	0.000000000E+00	-1.000000000E+00
	9000005	1	1	2	0	0	9.635600728E+02	5.713996609E+02	-2.399985696E+03	2.648561294E+03	1.000000000E-05	0.000000000E+00	0.000000000E+00

</event>
<event>
	4	1	3.267126300E-02	1.336576000E+03	7.818608000E-03	9.001052000E-02
	-2	-1	0	0	0	501	-0.000000000E+00	0.000000000E+00	3.628220733E+02	3.628220733E+02	5.040000000E-03	0.000000000E+00	1.000000000E+00
	1	-1	0	0	501	0	0.000000000E+00	-0.000000000E+00	-1.230931000E+03	1.230931000E+03	2.550000000E-03	0.000000000E+00	-1.000000000E+00
	-24	1	1	2	0	0	4.898913920E+02	4.350739335E+02	-5.774236035E+02	8.769679868E+02	7.982435975E+01	0.000000000E+00	-1.000000000E+00
	9000005	1	1	2	0	0	-4.898913920E+02	-4.350739335E+02	-2.906853237E+02	7.167850870E+02	1.000000000E-05	0.000000000E+00	0.000000000E+00

</event>
<event>
	4	1	3.267126300E-02	1.887675000E+03	7.818608000E-03	8.661016000E-02
	1	-1	0	0	501	0	0.000000000E+00	0.000000000E+00	6.511567305E+02	6.511567306E+02	5.040000000E-03	0.000000000E+00	-1.000000000E+00
	-2	-1	0	0	0	501	-0.000000000E+00	-0.000000000E+00	-1.368071747E+03	1.368071747E+03	2.550000000E-03	0.000000000E+00	1.000000000E+00
	-24	1	1	2	0	0	3.214794446E+01	-8.934572667E+02	-6.770444280E+02	1.124304435E+03	7.982435975E+01	0.000000000E+00	1.000000000E+00
	9000005	1	1	2	0	0	-3.214794446E+01	8.934572667E+02	-3.987058868E+01	8.949240423E+02	1.000000000E-05	0.000000000E+00	0.000000000E+00

</event>
<event>
	6	1	3.267126300E-02	1.816819000E+03	7.818608000E-03	8.697406000E-02
	-1	-1	0	0	0	501	-0.000000000E+00	0.000000000E+00	8.430365270E+02	8.430365270E+02	2.550000000E-03	0.000000000E+00	1.000000000E+00
	2	-1	0	0	501	0	0.000000000E+00	-0.000000000E+00	-9.788515607E+02	9.788515607E+02	5.040000000E-03	0.000000000E+00	-1.000000000E+00
	24	2	1	2	0	0	7.449030172E+02	5.160129030E+02	-4.301657240E+01	9.109757015E+02	8.292455696E+01	0.000000000E+00	0.000000000E+00
	-11	1	3	3	0	0	7.027876001E+02	5.077108540E+02	-4.275996521E+01	8.680490405E+02	5.110000000E-04	0.000000000E+00	1.000000000E+00
	12	1	3	3	0	0	4.211541710E+01	8.302048959E+00	-2.566071874E-01	4.292666097E+01	0.000000000E+00	0.000000000E+00	-1.000000000E+00
	9000005	1	1	2	0	0	-7.449030172E+02	-5.160129030E+02	-9.279846128E+01	9.109123863E+02	1.000000000E-05	0.000000000E+00	0.000000000E+00

</event>
<event>
	4	1	3.267126300E-02	1.959647000E+03	7.818608000E-03	8.625723000E-02
	-2	-1	0	0	0	501	-0.000000000E+00	0.000000000E+00	8.023504788E+02	8.023504788E+02	5.040000000E-03	0.000000000E+00	1.000000000E+00
	1	-1	0	0	501	0	0.000000000E+00	-0.000000000E+00	-1.196551472E+03	1.196551472E+03	2.550000000E-03	0.000000000E+00	-1.000000000E+00
	-24	1	1	2	0	0	6.995190306E+02	4.896496815E+02	-6.842581404E+02	1.097116592E+03	7.982435975E+01	0.000000000E+00	-1.000000000E+00
	9000005	1	1	2	0	0	-6.995190306E+02	-4.896496815E+02	2.900571474E+02	9.017853589E+02	1.000000000E-05	0.000000000E+00	0.000000000E+00

</event>
<event>
	4	1	3.267126300E-02	1.818819000E+03	7.818608000E-03	8.696355000E-02
	1	-1	0	0	501	0	0.000000000E+00	0.000000000E+00	5.042997081E+02	5.042997081E+02	5.040000000E-03	0.000000000E+00	-1.000000000E+00
	-2	-1	0	0	0	501	-0.000000000E+00	-0.000000000E+00	-1.639947997E+03	1.639947997E+03	2.550000000E-03	0.000000000E+00	1.000000000E+00
	-24	1	1	2	0	0	-6.154708390E+02	1.055474950E+02	-1.345485473E+03	1.485478951E+03	7.982435975E+01	0.000000000E+00	1.000000000E+00
	9000005	1	1	2	0	0	6.154708390E+02	-1.055474950E+02	2.098371843E+02	6.587687540E+02	1.000000000E-05	0.000000000E+00	0.000000000E+00

</event>
<event>
	4	1	3.267126300E-02	1.476817000E+03	7.818608000E-03	8.900018000E-02
	1	-1	0	0	501	0	0.000000000E+00	0.000000000E+00	1.265457973E+03	1.265457973E+03	5.040000000E-03	0.000000000E+00	-1.000000000E+00
	-2	-1	0	0	0	501	-0.000000000E+00	-0.000000000E+00	-4.308691277E+02	4.308691277E+02	2.550000000E-03	0.000000000E+00	1.000000000E+00
	-24	1	1	2	0	0	6.115035463E+02	2.695167277E+02	7.734586201E+02	1.025273631E+03	7.982435975E+01	0.000000000E+00	-1.000000000E+00
	9000005	1	1	2	0	0	-6.115035463E+02	-2.695167277E+02	6.113022471E+01	6.710534688E+02	1.000000000E-05	0.000000000E+00	0.000000000E+00

</event>
<event>
	4	1	3.267126300E-02	3.265095000E+03	7.818608000E-03	8.171834000E-02
	-2	-1	0	0	0	501	-0.000000000E+00	0.000000000E+00	1.491409152E+03	1.491409152E+03	5.040000000E-03	0.000000000E+00	1.000000000E+00
	1	-1	0	0	501	0	0.000000000E+00	-0.000000000E+00	-1.787042908E+03	1.787042908E+03	2.550000000E-03	0.000000000E+00	-1.000000000E+00
	-24	1	1	2	0	0	9.616749502E+02	1.072933514E+03	6.207471028E+02	1.570892717E+03	7.982435975E+01	0.000000000E+00	1.000000000E+00
	9000005	1	1	2	0	0	-9.616749502E+02	-1.072933514E+03	-9.163808586E+02	1.707559344E+03	1.000000000E-05	0.000000000E+00	0.000000000E+00

</event>
<event>
	4	1	3.267126300E-02	2.060478000E+03	7.818608000E-03	8.578856000E-02
	1	-1	0	0	501	0	0.000000000E+00	0.000000000E+00	7.940799301E+02	7.940799301E+02	5.040000000E-03	0.000000000E+00	-1.000000000E+00
	-2	-1	0	0	0	501	-0.000000000E+00	-0.000000000E+00	-1.336631716E+03	1.336631716E+03	2.550000000E-03	0.000000000E+00	1.000000000E+00
	-24	1	1	2	0	0	-7.480410919E+02	6.955969992E+02	-1.459312538E+02	1.034934065E+03	7.982435975E+01	0.000000000E+00	-1.000000000E+00
	9000005	1	1	2	0	0	7.480410919E+02	-6.955969992E+02	-3.966205325E+02	1.095777581E+03	1.000000000E-05	0.000000000E+00	0.000000000E+00

</event>
<event>
	4	1	3.267126300E-02	1.736692000E+03	7.818608000E-03	8.740710000E-02
	1	-1	0	0	501	0	0.000000000E+00	0.000000000E+00	2.824517224E+03	2.824517224E+03	5.040000000E-03	0.000000000E+00	-1.000000000E+00
	-2	-1	0	0	0	501	-0.000000000E+00	-0.000000000E+00	-2.669571495E+02	2.669571495E+02	2.550000000E-03	0.000000000E+00	1.000000000E+00
	-24	1	1	2	0	0	4.692175224E+02	-7.191131901E+02	1.488720007E+03	1.720449956E+03	7.982435975E+01	0.000000000E+00	-1.000000000E+00
	9000005	1	1	2	0	0	-4.692175224E+02	7.191131901E+02	1.068840068E+03	1.371024418E+03	1.000000000E-05	0.000000000E+00	0.000000000E+00

</event>
<event>
	4	1	3.267126300E-02	1.248864000E+03	7.818608000E-03	9.071129000E-02
	1	-1	0	0	501	0	0.000000000E+00	0.000000000E+00	4.874661183E+02	4.874661183E+02	5.040000000E-03	0.000000000E+00	-1.000000000E+00
	-2	-1	0	0	0	501	-0.000000000E+00	-0.000000000E+00	-7.998821483E+02	7.998821483E+02	2.550000000E-03	0.000000000E+00	1.000000000E+00
	-24	1	1	2	0	0	5.424808460E+02	-3.008826715E+02	-1.116764934E+02	6.353419693E+02	7.982435975E+01	0.000000000E+00	-1.000000000E+00
	9000005	1	1	2	0	0	-5.424808460E+02	3.008826715E+02	-2.007395366E+02	6.520062974E+02	1.000000000E-05	0.000000000E+00	0.000000000E+00

</event>
<event>
	4	1	3.267126300E-02	2.231414000E+03	7.818608000E-03	8.505465000E-02
	1	-1	0	0	501	0	0.000000000E+00	0.000000000E+00	1.171359183E+03	1.171359183E+03	5.040000000E-03	0.000000000E+00	-1.000000000E+00
	-2	-1	0	0	0	501	-0.000000000E+00	-0.000000000E+00	-1.062699266E+03	1.062699266E+03	2.550000000E-03	0.000000000E+00	1.000000000E+00
	-24	1	1	2	0	0	-9.993654899E+02	-4.200947719E+02	-2.036026243E+02	1.105910013E+03	7.982435975E+01	0.000000000E+00	1.000000000E+00
	9000005	1	1	2	0	0	9.993654899E+02	4.200947719E+02	3.122625412E+02	1.128148436E+03	1.000000000E-05	0.000000000E+00	0.000000000E+00

</event>
<event>
	4	1	3.267126300E-02	1.490716000E+03	7.818608000E-03	8.890650000E-02
	-2	-1	0	0	0	501	-0.000000000E+00	0.000000000E+00	2.408900373E+02	2.408900373E+02	5.040000000E-03	0.000000000E+00	1.000000000E+00
	1	-1	0	0	501	0	0.000000000E+00	-0.000000000E+00	-2.306274663E+03	2.306274663E+03	2.550000000E-03	0.000000000E+00	-1.000000000E+00
	-24	1	1	2	0	0	-5.734717776E+02	-4.233873585E+02	-6.762178928E+02	9.857835979E+02	7.982435975E+01	0.000000000E+00	1.000000000E+00
	9000005	1	1	2	0	0	5.734717776E+02	4.233873585E+02	-1.389166733E+03	1.561381103E+03	1.000000000E-05	0.000000000E+00	0.000000000E+00

</event>
<event>
	4	1	3.267126300E-02	1.593482000E+03	7.818608000E-03	8.824562000E-02
	-2	-1	0	0	0	501	-0.000000000E+00	0.000000000E+00	5.006442553E+02	5.006442553E+02	5.040000000E-03	0.000000000E+00	1.000000000E+00
	1	-1	0	0	501	0	0.000000000E+00	-0.000000000E+00	-1.267958191E+03	1.267958191E+03	2.550000000E-03	0.000000000E+00	-1.000000000E+00
	-24	1	1	2	0	0	-5.929511895E+02	5.259710557E+02	-3.201179994E+02	8.585360368E+02	7.982435975E+01	0.000000000E+00	1.000000000E+00
	9000005	1	1	2	0	0	5.929511895E+02	-5.259710557E+02	-4.471959362E+02	9.100664096E+02	1.000000000E-05	0.000000000E+00	0.000000000E+00

</event>
<event>
	4	1	3.267126300E-02	1.452293000E+03	7.818608000E-03	8.916812000E-02
	1	-1	0	0	501	0	0.000000000E+00	0.000000000E+00	9.208931417E+02	9.208931417E+02	5.040000000E-03	0.000000000E+00	-1.000000000E+00
	-2	-1	0	0	0	501	-0.000000000E+00	-0.000000000E+00	-5.725839140E+02	5.725839140E+02	2.550000000E-03	0.000000000E+00	1.000000000E+00
	-24	1	1	2	0	0	3.414770846E+02	-6.289581092E+02	2.869204894E+02	7.751710766E+02	7.982435975E+01	0.000000000E+00	-1.000000000E+00
	9000005	1	1	2	0	0	-3.414770846E+02	6.289581092E+02	6.138873842E+01	7.183059791E+02	1.000000000E-05	0.000000000E+00	0.000000000E+00

</event>
<event>
	4	1	3.267126300E-02	3.276187000E+03	7.818608000E-03	8.168981000E-02
	-2	-1	0	0	0	501	-0.000000000E+00	0.000000000E+00	1.028025154E+03	1.028025154E+03	5.040000000E-03	0.000000000E+00	1.000000000E+00
	1	-1	0	0	501	0	0.000000000E+00	-0.000000000E+00	-2.610198491E+03	2.610198491E+03	2.550000000E-03	0.000000000E+00	-1.000000000E+00
	-24	1	1	2	0	0	1.437954414E+03	-7.493523718E+02	-1.042153925E+03	1.929170445E+03	7.982435975E+01	0.000000000E+00	-1.000000000E+00
	9000005	1	1	2	0	0	-1.437954414E+03	7.493523718E+02	-5.400194121E+02	1.709053200E+03	1.000000000E-05	0.000000000E+00	0.000000000E+00

</event>
<event>
	4	1	3.267126300E-02	1.394743000E+03	7.818608000E-03	8.957632000E-02
	-4	-1	0	0	0	501	-0.000000000E+00	0.000000000E+00	9.774861653E+02	9.774869903E+02	5.040000000E-03	0.000000000E+00	1.000000000E+00
	1	-1	0	0	501	0	0.000000000E+00	-0.000000000E+00	-4.975280073E+02	4.975280073E+02	1.270000000E+00	0.000000000E+00	-1.000000000E+00
	-24	1	1	2	0	0	4.870046352E+02	-3.770718368E+02	5.814710618E+02	8.507862299E+02	7.982435975E+01	0.000000000E+00	1.000000000E+00
	9000005	1	1	2	0	0	-4.870046352E+02	3.770718368E+02	-1.015129038E+02	6.242287677E+02	1.000000000E-05	0.000000000E+00	0.000000000E+00

</event>
<event>
	4	1	3.267126300E-02	4.972198000E+03	7.818608000E-03	7.832810000E-02
	1	-1	0	0	501	0	0.000000000E+00	0.000000000E+00	4.624196036E+03	4.624196036E+03	5.040000000E-03	0.000000000E+00	-1.000000000E+00
	-2	-1	0	0	0	501	-0.000000000E+00	-0.000000000E+00	-1.336597425E+03	1.336597425E+03	2.550000000E-03	0.000000000E+00	1.000000000E+00
	-24	1	1	2	0	0	-5.638584919E+02	-8.892578713E+02	-1.054806773E+03	1.492549904E+03	7.982435975E+01	0.000000000E+00	1.000000000E+00
	9000005	1	1	2	0	0	5.638584919E+02	8.892578713E+02	4.342405384E+03	4.468243556E+03	1.000000000E-05	0.000000000E+00	0.000000000E+00

</event>
<event>
	4	1	3.267126300E-02	2.592225000E+03	7.818608000E-03	8.370847000E-02
	-2	-1	0	0	0	501	-0.000000000E+00	0.000000000E+00	1.064386236E+03	1.064386236E+03	5.040000000E-03	0.000000000E+00	1.000000000E+00
	1	-1	0	0	501	0	0.000000000E+00	-0.000000000E+00	-1.578287648E+03	1.578287648E+03	2.550000000E-03	0.000000000E+00	-1.000000000E+00
	-24	1	1	2	0	0	7.045376857E+02	1.081487702E+03	-3.628166632E+02	1.343129502E+03	7.982435975E+01	0.000000000E+00	-1.000000000E+00
	9000005	1	1	2	0	0	-7.045376857E+02	-1.081487702E+03	-1.510847487E+02	1.299544382E+03	1.000000000E-05	0.000000000E+00	0.000000000E+00

</event>
<event>
	4	1	3.267126300E-02	3.082183000E+03	7.818608000E-03	8.220645000E-02
	1	-1	0	0	501	0	0.000000000E+00	0.000000000E+00	1.255542312E+03	1.255542312E+03	5.040000000E-03	0.000000000E+00	-1.000000000E+00
	-2	-1	0	0	0	501	-0.000000000E+00	-0.000000000E+00	-1.891584010E+03	1.891584010E+03	2.550000000E-03	0.000000000E+00	1.000000000E+00
	-24	1	1	2	0	0	2.304134690E+02	8.996425128E+02	9.362005279E+02	1.321094385E+03	7.982435975E+01	0.000000000E+00	-1.000000000E+00
	9000005	1	1	2	0	0	-2.304134690E+02	-8.996425128E+02	-1.572242226E+03	1.826031937E+03	1.000000000E-05	0.000000000E+00	0.000000000E+00

</event>
<event>
	4	1	3.267126300E-02	1.359748000E+03	7.818608000E-03	8.983482000E-02
	1	-1	0	0	501	0	0.000000000E+00	0.000000000E+00	1.157238774E+03	1.157238774E+03	5.040000000E-03	0.000000000E+00	-1.000000000E+00
	-2	-1	0	0	0	501	-0.000000000E+00	-0.000000000E+00	-3.994235768E+02	3.994235768E+02	2.550000000E-03	0.000000000E+00	1.000000000E+00
	-24	1	1	2	0	0	-5.542728251E+02	3.890044207E+02	3.544824860E+02	7.684871927E+02	7.982435975E+01	0.000000000E+00	1.000000000E+00
	9000005	1	1	2	0	0	5.542728251E+02	-3.890044207E+02	4.033327112E+02	7.881751581E+02	1.000000000E-05	0.000000000E+00	0.000000000E+00

</event>
<event>
	4	1	3.267126300E-02	1.439408000E+03	7.818608000E-03	8.925777000E-02
	1	-1	0	0	501	0	0.000000000E+00	0.000000000E+00	2.418110237E+03	2.418110237E+03	5.040000000E-03	0.000000000E+00	-1.000000000E+00
	-2	-1	0	0	0	501	-0.000000000E+00	-0.000000000E+00	-2.142061266E+02	2.142061266E+02	2.550000000E-03	0.000000000E+00	1.000000000E+00
	-24	1	1	2	0	0	5.090609592E+01	6.783918012E+02	6.883778364E+02	9.711039288E+02	7.982435975E+01	0.000000000E+00	1.000000000E+00
	9000005	1	1	2	0	0	-5.090609592E+01	-6.783918012E+02	1.515526274E+03	1.661212435E+03	1.000000000E-05	0.000000000E+00	0.000000000E+00

</event>
<event>
	4	1	3.267126300E-02	2.536281000E+03	7.818608000E-03	8.390173000E-02
	-2	-1	0	0	0	501	-0.000000000E+00	0.000000000E+00	2.239736490E+03	2.239736490E+03	5.040000000E-03	0.000000000E+00	1.000000000E+00
	1	-1	0	0	501	0	0.000000000E+00	-0.000000000E+00	-7.180222832E+02	7.180222832E+02	2.550000000E-03	0.000000000E+00	-1.000000000E+00
	-24	1	1	2	0	0	-1.110533354E+03	2.486764224E+02	1.410777896E+03	1.814329213E+03	7.982435975E+01	0.000000000E+00	1.000000000E+00
	9000005	1	1	2	0	0	1.110533354E+03	-2.486764224E+02	1.109363108E+02	1.143429560E+03	1.000000000E-05	0.000000000E+00	0.000000000E+00

</event>
<event>
	4	1	3.267126300E-02	1.250676000E+03	7.818608000E-03	9.069621000E-02
	1	-1	0	0	501	0	0.000000000E+00	0.000000000E+00	5.289853169E+02	5.289853169E+02	5.040000000E-03	0.000000000E+00	-1.000000000E+00
	-4	-1	0	0	0	501	-0.000000000E+00	-0.000000000E+00	-7.392399641E+02	7.392410550E+02	1.270000000E+00	0.000000000E+00	1.000000000E+00
	-24	1	1	2	0	0	5.928534440E+02	1.771858825E+02	-1.772460240E+02	6.485816251E+02	7.982435975E+01	0.000000000E+00	1.000000000E+00
	9000005	1	1	2	0	0	-5.928534440E+02	-1.771858825E+02	-3.300862318E+01	6.196447468E+02	1.000000000E-05	0.000000000E+00	0.000000000E+00

</event>
<event>
	4	1	3.267126300E-02	1.315867000E+03	7.818608000E-03	9.017076000E-02
	-2	-1	0	0	0	501	-0.000000000E+00	0.000000000E+00	3.766551231E+02	3.766551232E+02	5.040000000E-03	0.000000000E+00	1.000000000E+00
	1	-1	0	0	501	0	0.000000000E+00	-0.000000000E+00	-1.149264685E+03	1.149264685E+03	2.550000000E-03	0.000000000E+00	-1.000000000E+00
	-24	1	1	2	0	0	4.266599503E+01	-6.088698247E+02	-1.104958337E+02	6.253991591E+02	7.982435975E+01	0.000000000E+00	1.000000000E+00
	9000005	1	1	2	0	0	-4.266599503E+01	6.088698247E+02	-6.621137284E+02	9.005206493E+02	1.000000000E-05	0.000000000E+00	0.000000000E+00

</event>
<event>
	4	1	3.267126300E-02	1.316484000E+03	7.818608000E-03	9.016594000E-02
	-2	-1	0	0	0	501	-0.000000000E+00	0.000000000E+00	7.160052102E+02	7.160052102E+02	5.040000000E-03	0.000000000E+00	1.000000000E+00
	1	-1	0	0	501	0	0.000000000E+00	-0.000000000E+00	-6.051388665E+02	6.051388665E+02	2.550000000E-03	0.000000000E+00	-1.000000000E+00
	-24	1	1	2	0	0	4.853958823E+02	4.304539087E+02	-4.063352748E+01	6.549219358E+02	7.982435975E+01	0.000000000E+00	1.000000000E+00
	9000005	1	1	2	0	0	-4.853958823E+02	-4.304539087E+02	1.514998712E+02	6.662221409E+02	1.000000000E-05	0.000000000E+00	0.000000000E+00

</event>
<event>
	4	1	3.267126300E-02	1.761475000E+03	7.818608000E-03	8.727059000E-02
	1	-1	0	0	501	0	0.000000000E+00	0.000000000E+00	1.611515161E+03	1.611515161E+03	5.040000000E-03	0.000000000E+00	-1.000000000E+00
	-2	-1	0	0	0	501	-0.000000000E+00	-0.000000000E+00	-4.813474545E+02	4.813474545E+02	2.550000000E-03	0.000000000E+00	1.000000000E+00
	-24	1	1	2	0	0	-8.497531936E+02	-2.222288091E+02	6.047422076E+02	1.069369534E+03	7.982435975E+01	0.000000000E+00	-1.000000000E+00
	9000005	1	1	2	0	0	8.497531936E+02	2.222288091E+02	5.254254989E+02	1.023493082E+03	1.000000000E-05	0.000000000E+00	0.000000000E+00

</event>
<event>
	6	1	3.267126300E-02	2.256304000E+03	7.818608000E-03	8.495352000E-02
	-1	-1	0	0	0	501	-0.000000000E+00	0.000000000E+00	3.034176658E+02	3.034176658E+02	2.550000000E-03	0.000000000E+00	1.000000000E+00
	2	-1	0	0	501	0	0.000000000E+00	-0.000000000E+00	-4.194637129E+03	4.194637129E+03	5.040000000E-03	0.000000000E+00	-1.000000000E+00
	24	2	1	2	0	0	5.682688034E+02	-5.381114064E+02	-3.314975600E+02	8.533170338E+02	7.593424300E+01	0.000000000E+00	0.000000000E+00
	-11	1	3	3	0	0	5.668135880E+02	-5.261638405E+02	-3.310830280E+02	8.412740350E+02	5.110000000E-04	0.000000000E+00	1.000000000E+00
	12	1	3	3	0	0	1.455215406E+00	-1.194756586E+01	-4.145320039E-01	1.204299874E+01	0.000000000E+00	0.000000000E+00	-1.000000000E+00
	9000005	1	1	2	0	0	-5.682688034E+02	5.381114064E+02	-3.559721903E+03	3.644737761E+03	1.000000000E-05	0.000000000E+00	0.000000000E+00

</event>
<event>
	4	1	3.267126300E-02	1.731577000E+03	7.818608000E-03	8.743557000E-02
	1	-1	0	0	501	0	0.000000000E+00	0.000000000E+00	1.166075377E+03	1.166075377E+03	5.040000000E-03	0.000000000E+00	-1.000000000E+00
	-2	-1	0	0	0	501	-0.000000000E+00	-0.000000000E+00	-6.428310886E+02	6.428310886E+02	2.550000000E-03	0.000000000E+00	1.000000000E+00
	-24	1	1	2	0	0	8.546549929E+02	4.015789299E+00	1.302214095E+02	8.682055214E+02	7.982435975E+01	0.000000000E+00	-1.000000000E+00
	9000005	1	1	2	0	0	-8.546549929E+02	-4.015789299E+00	3.930228791E+02	9.407009445E+02	1.000000000E-05	0.000000000E+00	0.000000000E+00

</event>
<event>
	4	1	3.267126300E-02	1.380656000E+03	7.818608000E-03	8.967941000E-02
	-2	-1	0	0	0	501	-0.000000000E+00	0.000000000E+00	3.132202749E+02	3.132202749E+02	5.040000000E-03	0.000000000E+00	1.000000000E+00
	1	-1	0	0	501	0	0.000000000E+00	-0.000000000E+00	-1.521461243E+03	1.521461243E+03	2.550000000E-03	0.000000000E+00	-1.000000000E+00
	-24	1	1	2	0	0	1.427129743E+02	-6.313127498E+02	-9.162176486E+02	1.124610817E+03	7.982435975E+01	0.000000000E+00	-1.000000000E+00
	9000005	1	1	2	0	0	-1.427129743E+02	6.313127498E+02	-2.920233190E+02	7.100707007E+02	1.000000000E-05	0.000000000E+00	0.000000000E+00

</event>
<event>
	4	1	3.267126300E-02	1.649300000E+03	7.818608000E-03	8.790821000E-02
	-2	-1	0	0	0	501	-0.000000000E+00	0.000000000E+00	1.032130732E+03	1.032130732E+03	5.040000000E-03	0.000000000E+00	1.000000000E+00
	1	-1	0	0	501	0	0.000000000E+00	-0.000000000E+00	-6.588773996E+02	6.588773996E+02	2.550000000E-03	0.000000000E+00	-1.000000000E+00
	-24	1	1	2	0	0	-3.449117148E+02	5.897889669E+02	-2.828385606E+02	7.437638713E+02	7.982435975E+01	0.000000000E+00	-1.000000000E+00
	9000005	1	1	2	0	0	3.449117148E+02	-5.897889669E+02	6.560918928E+02	9.472442600E+02	1.000000000E-05	0.000000000E+00	0.000000000E+00

</event>
<event>
	4	1	3.267126300E-02	1.535736000E+03	7.818608000E-03	8.861031000E-02
	-2	-1	0	0	0	501	-0.000000000E+00	0.000000000E+00	1.857624790E+02	1.857624790E+02	5.040000000E-03	0.000000000E+00	1.000000000E+00
	1	-1	0	0	501	0	0.000000000E+00	-0.000000000E+00	-3.174058537E+03	3.174058537E+03	2.550000000E-03	0.000000000E+00	-1.000000000E+00
	-24	1	1	2	0	0	-1.233710653E+02	-7.442010815E+02	-1.786634547E+03	1.941002473E+03	7.982435975E+01	0.000000000E+00	1.000000000E+00
	9000005	1	1	2	0	0	1.233710653E+02	7.442010815E+02	-1.201661511E+03	1.418818542E+03	1.000000000E-05	0.000000000E+00	0.000000000E+00

</event>
<event>
	4	1	3.267126300E-02	1.508573000E+03	7.818608000E-03	8.878772000E-02
	1	-1	0	0	501	0	0.000000000E+00	0.000000000E+00	7.227616224E+02	7.227616224E+02	5.040000000E-03	0.000000000E+00	-1.000000000E+00
	-2	-1	0	0	0	501	-0.000000000E+00	-0.000000000E+00	-7.871864108E+02	7.871864108E+02	2.550000000E-03	0.000000000E+00	1.000000000E+00
	-24	1	1	2	0	0	7.486609378E+02	-6.950393724E+01	-5.336044821E+01	7.579863210E+02	7.982435975E+01	0.000000000E+00	1.000000000E+00
	9000005	1	1	2	0	0	-7.486609378E+02	6.950393724E+01	-1.106434016E+01	7.519617122E+02	1.000000000E-05	0.000000000E+00	0.000000000E+00

</event>
<event>
	4	1	3.267126300E-02	1.369284000E+03	7.818608000E-03	8.976357000E-02
	1	-1	0	0	501	0	0.000000000E+00	0.000000000E+00	9.497027093E+02	9.497027093E+02	5.040000000E-03	0.000000000E+00	-1.000000000E+00
	-2	-1	0	0	0	501	-0.000000000E+00	-0.000000000E+00	-4.935595376E+02	4.935595376E+02	2.550000000E-03	0.000000000E+00	1.000000000E+00
	-24	1	1	2	0	0	-6.061115108E+02	1.099394109E+01	5.589140322E+02	8.284013846E+02	7.982435975E+01	0.000000000E+00	1.000000000E+00
	9000005	1	1	2	0	0	6.061115108E+02	-1.099394109E+01	-1.027708605E+02	6.148608623E+02	1.000000000E-05	0.000000000E+00	0.000000000E+00

</event>
<event>
	4	1	3.267126300E-02	1.225621000E+03	7.818608000E-03	9.090722000E-02
	-4	-1	0	0	0	501	-0.000000000E+00	0.000000000E+00	5.912101257E+02	5.912114898E+02	5.040000000E-03	0.000000000E+00	1.000000000E+00
	1	-1	0	0	501	0	0.000000000E+00	-0.000000000E+00	-6.351983710E+02	6.351983710E+02	1.270000000E+00	0.000000000E+00	-1.000000000E+00
	-24	1	1	2	0	0	1.823975551E+02	5.793364063E+02	-8.092832786E+01	6.179165497E+02	7.982435975E+01	0.000000000E+00	-1.000000000E+00
	9000005	1	1	2	0	0	-1.823975551E+02	-5.793364063E+02	3.694008261E+01	6.084933110E+02	1.000000000E-05	0.000000000E+00	0.000000000E+00

</event>
<event>
	4	1	3.267126300E-02	1.381748000E+03	7.818608000E-03	8.967137000E-02
	-2	-1	0	0	0	501	-0.000000000E+00	0.000000000E+00	6.724072663E+02	6.724072663E+02	5.040000000E-03	0.000000000E+00	1.000000000E+00
	1	-1	0	0	501	0	0.000000000E+00	-0.000000000E+00	-7.098475501E+02	7.098475501E+02	2.550000000E-03	0.000000000E+00	-1.000000000E+00
	-24	1	1	2	0	0	4.642695676E+02	4.610807496E+02	1.957356226E+02	6.876234808E+02	7.982435975E+01	0.000000000E+00	1.000000000E+00
	9000005	1	1	2	0	0	-4.642695676E+02	-4.610807496E+02	-2.331759064E+02	6.946313356E+02	1.000000000E-05	0.000000000E+00	0.000000000E+00

</event>
<event>
	4	1	3.267126300E-02	1.461426000E+03	7.818608000E-03	8.910517000E-02
	-2	-1	0	0	0	501	-0.000000000E+00	0.000000000E+00	2.043135269E+02	2.043135269E+02	5.040000000E-03	0.000000000E+00	1.000000000E+00
	1	-1	0	0	501	0	0.000000000E+00	-0.000000000E+00	-2.613343407E+03	2.613343407E+03	2.550000000E-03	0.000000000E+00	-1.000000000E+00
	-24	1	1	2	0	0	-6.805289104E+02	1.668684977E+02	-8.234916769E+02	1.084193324E+03	7.982435975E+01	0.000000000E+00	1.000000000E+00
	9000005	1	1	2	0	0	6.805289104E+02	-1.668684977E+02	-1.585538203E+03	1.733463610E+03	1.000000000E-05	0.000000000E+00	0.000000000E+00

</event>
<event>
	4	1	3.267126300E-02	1.671302000E+03	7.818608000E-03	8.777903000E-02
	-2	-1	0	0	0	501	-0.000000000E+00	0.000000000E+00	8.527383242E+02	8.527383242E+02	5.040000000E-03	0.000000000E+00	1.000000000E+00
	1	-1	0	0	501	0	0.000000000E+00	-0.000000000E+00	-8.189059105E+02	8.189059105E+02	2.550000000E-03	0.000000000E+00	-1.000000000E+00
	-24	1	1	2	0	0	-7.214059215E+02	7.708588547E+00	4.349449444E+02	8.461884890E+02	7.982435975E+01	0.000000000E+00	1.000000000E+00
	9000005	1	1	2	0	0	7.214059215E+02	-7.708588547E+00	-4.011125306E+02	8.254557457E+02	1.000000000E-05	0.000000000E+00	0.000000000E+00

</event>
<event>
	4	1	3.267126300E-02	1.375750000E+03	7.818608000E-03	8.971561000E-02
	-2	-1	0	0	0	501	-0.000000000E+00	0.000000000E+00	4.584263313E+02	4.584263313E+02	5.040000000E-03	0.000000000E+00	1.000000000E+00
	1	-1	0	0	501	0	0.000000000E+00	-0.000000000E+00	-1.032166605E+03	1.032166605E+03	2.550000000E-03	0.000000000E+00	-1.000000000E+00
	-24	1	1	2	0	0	-6.364602034E+02	-1.721871209E+02	-8.437952227E+01	6.694937097E+02	7.982435975E+01	0.000000000E+00	1.000000000E+00
	9000005	1	1	2	0	0	6.364602034E+02	1.721871209E+02	-4.893607515E+02	8.210992268E+02	1.000000000E-05	0.000000000E+00	0.000000000E+00

</event>
<event>
	4	1	3.267126300E-02	1.504331000E+03	7.818608000E-03	8.881578000E-02
	-2	-1	0	0	0	501	-0.000000000E+00	0.000000000E+00	4.421782431E+02	4.421782431E+02	5.040000000E-03	0.000000000E+00	1.000000000E+00
	1	-1	0	0	501	0	0.000000000E+00	-0.000000000E+00	-1.279468420E+03	1.279468420E+03	2.550000000E-03	0.000000000E+00	-1.000000000E+00
	-24	1	1	2	0	0	-1.870581867E+02	-7.195048281E+02	-5.336596894E+02	9.186090329E+02	7.982435975E+01	0.000000000E+00	1.000000000E+00
	9000005	1	1	2	0	0	1.870581867E+02	7.195048281E+02	-3.036304879E+02	8.030376306E+02	1.000000000E-05	0.000000000E+00	0.000000000E+00

</event>
<event>
	4	1	3.267126300E-02	2.086233000E+03	7.818608000E-03	8.567332000E-02
	-2	-1	0	0	0	501	-0.000000000E+00	0.000000000E+00	1.039447698E+03	1.039447698E+03	5.040000000E-03	0.000000000E+00	1.000000000E+00
	1	-1	0	0	501	0	0.000000000E+00	-0.000000000E+00	-1.046798160E+03	1.046798160E+03	2.550000000E-03	0.000000000E+00	-1.000000000E+00
	-24	1	1	2	0	0	-4.838205118E+02	9.057969950E+02	1.705554314E+02	1.044036191E+03	7.982435975E+01	0.000000000E+00	1.000000000E+00
	9000005	1	1	2	0	0	4.838205118E+02	-9.057969950E+02	-1.779058941E+02	1.042209668E+03	1.000000000E-05	0.000000000E+00	0.000000000E+00

</event>
<event>
	4	1	3.267126300E-02	1.468158000E+03	7.818608000E-03	8.905908000E-02
	3	-1	0	0	501	0	0.000000000E+00	0.000000000E+00	3.173740523E+02	3.173740684E+02	1.010000000E-01	0.000000000E+00	-1.000000000E+00
	-4	-1	0	0	0	501	-0.000000000E+00	-0.000000000E+00	-1.697907623E+03	1.697908098E+03	1.270000000E+00	0.000000000E+00	1.000000000E+00
	-24	1	1	2	0	0	5.595162719E+02	4.573423968E+02	-8.516218335E+02	1.119755421E+03	7.982435975E+01	0.000000000E+00	-1.000000000E+00
	9000005	1	1	2	0	0	-5.595162719E+02	-4.573423968E+02	-5.289117371E+02	8.955267456E+02	1.000000000E-05	0.000000000E+00	0.000000000E+00

</event>
<event>
	4	1	3.267126300E-02	2.777850000E+03	7.818608000E-03	8.310178000E-02
	-2	-1	0	0	0	501	-0.000000000E+00	0.000000000E+00	1.001579388E+03	1.001579388E+03	5.040000000E-03	0.000000000E+00	1.000000000E+00
	1	-1	0	0	501	0	0.000000000E+00	-0.000000000E+00	-1.926070262E+03	1.926070262E+03	2.550000000E-03	0.000000000E+00	-1.000000000E+00
	-24	1	1	2	0	0	-8.519263641E+02	-1.002534904E+03	-9.281154546E+02	1.612025121E+03	7.982435975E+01	0.000000000E+00	-1.000000000E+00
	9000005	1	1	2	0	0	8.519263641E+02	1.002534904E+03	3.624580518E+00	1.315624529E+03	1.000000000E-05	0.000000000E+00	0.000000000E+00

</event>
<event>
	4	1	3.267126300E-02	1.500636000E+03	7.818608000E-03	8.884030000E-02
	-2	-1	0	0	0	501	-0.000000000E+00	0.000000000E+00	4.111680849E+02	4.111680850E+02	5.040000000E-03	0.000000000E+00	1.000000000E+00
	1	-1	0	0	501	0	0.000000000E+00	-0.000000000E+00	-1.369214585E+03	1.369214585E+03	2.550000000E-03	0.000000000E+00	-1.000000000E+00
	-24	1	1	2	0	0	2.876491409E+02	5.719782450E+02	-2.104202296E+01	6.455353097E+02	7.982435975E+01	0.000000000E+00	1.000000000E+00
	9000005	1	1	2	0	0	-2.876491409E+02	-5.719782450E+02	-9.370044771E+02	1.134847360E+03	1.000000000E-05	0.000000000E+00	0.000000000E+00

</event>
<event>
	4	1	3.267126300E-02	2.011076000E+03	7.818608000E-03	8.601460000E-02
	1	-1	0	0	501	0	0.000000000E+00	0.000000000E+00	1.301648917E+03	1.301648917E+03	5.040000000E-03	0.000000000E+00	-1.000000000E+00
	-2	-1	0	0	0	501	-0.000000000E+00	-0.000000000E+00	-7.767892918E+02	7.767892918E+02	2.550000000E-03	0.000000000E+00	1.000000000E+00
	-24	1	1	2	0	0	-7.338736229E+02	2.466863984E+02	-3.977041152E+02	8.740510084E+02	7.982435975E+01	0.000000000E+00	1.000000000E+00
	9000005	1	1	2	0	0	7.338736229E+02	-2.466863984E+02	9.225637410E+02	1.204387201E+03	1.000000000E-05	0.000000000E+00	0.000000000E+00

</event>
<event>
	4	1	3.267126300E-02	1.845385000E+03	7.818608000E-03	8.682530000E-02
	1	-1	0	0	501	0	0.000000000E+00	0.000000000E+00	1.782071063E+03	1.782071063E+03	5.040000000E-03	0.000000000E+00	-1.000000000E+00
	-2	-1	0	0	0	501	-0.000000000E+00	-0.000000000E+00	-4.777369248E+02	4.777369248E+02	2.550000000E-03	0.000000000E+00	1.000000000E+00
	-24	1	1	2	0	0	7.361462654E+02	1.760432947E+02	1.295880470E+03	1.502857507E+03	7.982435975E+01	0.000000000E+00	-1.000000000E+00
	9000005	1	1	2	0	0	-7.361462654E+02	-1.760432947E+02	8.453668212E+00	7.569504807E+02	1.000000000E-05	0.000000000E+00	0.000000000E+00

</event>
<event>
	6	1	3.267126300E-02	3.073242000E+03	7.818608000E-03	8.223120000E-02
	-1	-1	0	0	0	501	-0.000000000E+00	0.000000000E+00	1.346952445E+03	1.346952445E+03	2.550000000E-03	0.000000000E+00	1.000000000E+00
	2	-1	0	0	501	0	0.000000000E+00	-0.000000000E+00	-1.752997688E+03	1.752997688E+03	5.040000000E-03	0.000000000E+00	-1.000000000E+00
	24	2	1	2	0	0	8.286761091E+02	1.286459936E+03	-7.415454937E+01	1.534116588E+03	7.957101137E+01	0.000000000E+00	0.000000000E+00
	-11	1	3	3	0	0	7.129776834E+02	1.151015913E+03	-7.428155633E+01	1.355983982E+03	5.110000000E-04	0.000000000E+00	1.000000000E+00
	12	1	3	3	0	0	1.156984257E+02	1.354440226E+02	1.270069552E-01	1.781326054E+02	0.000000000E+00	0.000000000E+00	-1.000000000E+00
	9000005	1	1	2	0	0	-8.286761091E+02	-1.286459936E+03	-3.318906937E+02	1.565833546E+03	1.000000000E-05	0.000000000E+00	0.000000000E+00

</event>
<event>
	4	1	3.267126300E-02	2.273851000E+03	7.818608000E-03	8.488303000E-02
	-2	-1	0	0	0	501	-0.000000000E+00	0.000000000E+00	1.359040709E+03	1.359040709E+03	5.040000000E-03	0.000000000E+00	1.000000000E+00
	1	-1	0	0	501	0	0.000000000E+00	-0.000000000E+00	-9.511114287E+02	9.511114287E+02	2.550000000E-03	0.000000000E+00	-1.000000000E+00
	-24	1	1	2	0	0	2.181623099E+02	-8.481991721E+02	-5.300802437E+02	1.026836707E+03	7.982435975E+01	0.000000000E+00	-1.000000000E+00
	9000005	1	1	2	0	0	-2.181623099E+02	8.481991721E+02	9.380095243E+02	1.283315431E+03	1.000000000E-05	0.000000000E+00	0.000000000E+00

</event>
<event>
	4	1	3.267126300E-02	1.701972000E+03	7.818608000E-03	8.760240000E-02
	1	-1	0	0	501	0	0.000000000E+00	0.000000000E+00	1.051782564E+03	1.051782564E+03	5.040000000E-03	0.000000000E+00	-1.000000000E+00
	-2	-1	0	0	0	501	-0.000000000E+00	-0.000000000E+00	-6.885236844E+02	6.885236844E+02	2.550000000E-03	0.000000000E+00	1.000000000E+00
	-24	1	1	2	0	0	-5.552547013E+02	5.779614907E+02	4.687870490E+02	9.319230085E+02	7.982435975E+01	0.000000000E+00	-1.000000000E+00
	9000005	1	1	2	0	0	5.552547013E+02	-5.779614907E+02	-1.055281693E+02	8.083832399E+02	1.000000000E-05	0.000000000E+00	0.000000000E+00

</event>
<event>
	4	1	3.267126300E-02	2.502881000E+03	7.818608000E-03	8.401960000E-02
	1	-1	0	0	501	0	0.000000000E+00	0.000000000E+00	2.665798175E+03	2.665798175E+03	5.040000000E-03	0.000000000E+00	-1.000000000E+00
	-2	-1	0	0	0	501	-0.000000000E+00	-0.000000000E+00	-5.874799956E+02	5.874799956E+02	2.550000000E-03	0.000000000E+00	1.000000000E+00
	-24	1	1	2	0	0	8.875055748E+02	-2.849793917E+02	2.123077996E+03	2.320067134E+03	7.982435975E+01	0.000000000E+00	-1.000000000E+00
	9000005	1	1	2	0	0	-8.875055748E+02	2.849793917E+02	-4.475981638E+01	9.332110373E+02	1.000000000E-05	0.000000000E+00	0.000000000E+00

</event>
<event>
	4	1	3.267126300E-02	1.428340000E+03	7.818608000E-03	8.933556000E-02
	-2	-1	0	0	0	501	-0.000000000E+00	0.000000000E+00	3.935165912E+02	3.935165912E+02	5.040000000E-03	0.000000000E+00	1.000000000E+00
	1	-1	0	0	501	0	0.000000000E+00	-0.000000000E+00	-1.296105630E+03	1.296105630E+03	2.550000000E-03	0.000000000E+00	-1.000000000E+00
	-24	1	1	2	0	0	3.089038772E+02	6.081278878E+02	-2.113842003E+02	7.185376411E+02	7.982435975E+01	0.000000000E+00	1.000000000E+00
	9000005	1	1	2	0	0	-3.089038772E+02	-6.081278878E+02	-6.912048390E+02	9.710845806E+02	1.000000000E-05	0.000000000E+00	0.000000000E+00

</event>
<event>
	4	1	3.267126300E-02	1.552333000E+03	7.818608000E-03	8.850379000E-02
	-2	-1	0	0	0	501	-0.000000000E+00	0.000000000E+00	4.199643838E+02	4.199643838E+02	5.040000000E-03	0.000000000E+00	1.000000000E+00
	1	-1	0	0	501	0	0.000000000E+00	-0.000000000E+00	-1.434488587E+03	1.434488587E+03	2.550000000E-03	0.000000000E+00	-1.000000000E+00
	-24	1	1	2	0	0	5.316640401E+02	3.784504712E+02	-1.006004469E+03	1.201793797E+03	7.982435975E+01	0.000000000E+00	-1.000000000E+00
	9000005	1	1	2	0	0	-5.316640401E+02	-3.784504712E+02	-8.519733661E+00	6.526591733E+02	1.000000000E-05	0.000000000E+00	0.000000000E+00

</event>
<event>
	4	1	3.267126300E-02	1.372384000E+03	7.818608000E-03	8.974054000E-02
	1	-1	0	0	501	0	0.000000000E+00	0.000000000E+00	6.272869198E+02	6.272869198E+02	5.040000000E-03	0.000000000E+00	-1.000000000E+00
	-2	-1	0	0	0	501	-0.000000000E+00	-0.000000000E+00	-7.506288113E+02	7.506288113E+02	2.550000000E-03	0.000000000E+00	1.000000000E+00
	-24	1	1	2	0	0	-5.081894888E+02	-4.347171112E+02	-2.054367762E+02	7.041389925E+02	7.982435975E+01	0.000000000E+00	1.000000000E+00
	9000005	1	1	2	0	0	5.081894888E+02	4.347171112E+02	8.209488467E+01	6.737767386E+02	1.000000000E-05	0.000000000E+00	0.000000000E+00

</event>
<event>
	4	1	3.267126300E-02	3.863634000E+03	7.818608000E-03	8.032635000E-02
	-2	-1	0	0	0	501	-0.000000000E+00	0.000000000E+00	1.638720987E+03	1.638720987E+03	5.040000000E-03	0.000000000E+00	1.000000000E+00
	1	-1	0	0	501	0	0.000000000E+00	-0.000000000E+00	-2.277335481E+03	2.277335481E+03	2.550000000E-03	0.000000000E+00	-1.000000000E+00
	-24	1	1	2	0	0	7.973030087E+01	1.918883683E+03	-5.228165702E+02	1.992029268E+03	7.982435975E+01	0.000000000E+00	-1.000000000E+00
	9000005	1	1	2	0	0	-7.973030087E+01	-1.918883683E+03	-1.157979243E+02	1.924027200E+03	1.000000000E-05	0.000000000E+00	0.000000000E+00

</event>
<event>
	4	1	3.267126300E-02	2.011676000E+03	7.818608000E-03	8.601181000E-02
	1	-1	0	0	501	0	0.000000000E+00	0.000000000E+00	1.117528769E+03	1.117528769E+03	5.040000000E-03	0.000000000E+00	-1.000000000E+00
	-2	-1	0	0	0	501	-0.000000000E+00	-0.000000000E+00	-9.053102366E+02	9.053102366E+02	2.550000000E-03	0.000000000E+00	1.000000000E+00
	-24	1	1	2	0	0	-3.378118179E+02	-8.514477504E+02	5.201995563E+02	1.056437221E+03	7.982435975E+01	0.000000000E+00	-1.000000000E+00
	9000005	1	1	2	0	0	3.378118179E+02	8.514477504E+02	-3.079810244E+02	9.664017836E+02	1.000000000E-05	0.000000000E+00	0.000000000E+00

</event>
<event>
	4	1	3.267126300E-02	1.753822000E+03	7.818608000E-03	8.731249000E-02
	1	-1	0	0	501	0	0.000000000E+00	0.000000000E+00	7.987619502E+02	7.987619502E+02	5.040000000E-03	0.000000000E+00	-1.000000000E+00
	-2	-1	0	0	0	501	-0.000000000E+00	-0.000000000E+00	-9.627057309E+02	9.627057309E+02	2.550000000E-03	0.000000000E+00	1.000000000E+00
	-24	1	1	2	0	0	7.457758019E+02	1.773214850E+02	3.417951137E+02	8.431015858E+02	7.982435975E+01	0.000000000E+00	-1.000000000E+00
	9000005	1	1	2	0	0	-7.457758019E+02	-1.773214850E+02	-5.057388944E+02	9.183660954E+02	1.000000000E-05	0.000000000E+00	0.000000000E+00

</event>
<event>
	4	1	3.267126300E-02	2.726452000E+03	7.818608000E-03	8.326473000E-02
	-2	-1	0	0	0	501	-0.000000000E+00	0.000000000E+00	1.166372552E+03	1.166372552E+03	5.040000000E-03	0.000000000E+00	1.000000000E+00
	1	-1	0	0	501	0	0.000000000E+00	-0.000000000E+00	-1.593303277E+03	1.593303277E+03	2.550000000E-03	0.000000000E+00	-1.000000000E+00
	-24	1	1	2	0	0	-9.752691896E+02	-9.096010254E+02	-4.939280185E+02	1.424380860E+03	7.982435975E+01	0.000000000E+00	-1.000000000E+00
	9000005	1	1	2	0	0	9.752691896E+02	9.096010254E+02	6.699729398E+01	1.335294969E+03	1.000000000E-05	0.000000000E+00	0.000000000E+00

</event>
<event>
	4	1	3.267126300E-02	1.296274000E+03	7.818608000E-03	9.032525000E-02
	-2	-1	0	0	0	501	-0.000000000E+00	0.000000000E+00	2.524553166E+02	2.524553166E+02	5.040000000E-03	0.000000000E+00	1.000000000E+00
	1	-1	0	0	501	0	0.000000000E+00	-0.000000000E+00	-1.663982685E+03	1.663982685E+03	2.550000000E-03	0.000000000E+00	-1.000000000E+00
	-24	1	1	2	0	0	-6.425846986E+02	-6.213835115E+01	-7.249746982E+02	9.740310626E+02	7.982435975E+01	0.000000000E+00	1.000000000E+00
	9000005	1	1	2	0	0	6.425846986E+02	6.213835115E+01	-6.865526699E+02	9.424069387E+02	1.000000000E-05	0.000000000E+00	0.000000000E+00

</event>
<event>
	4	1	3.267126300E-02	1.515150000E+03	7.818608000E-03	8.874440000E-02
	1	-1	0	0	501	0	0.000000000E+00	0.000000000E+00	2.300610325E+03	2.300610325E+03	5.040000000E-03	0.000000000E+00	-1.000000000E+00
	-2	-1	0	0	0	501	-0.000000000E+00	-0.000000000E+00	-2.494643353E+02	2.494643353E+02	2.550000000E-03	0.000000000E+00	1.000000000E+00
	-24	1	1	2	0	0	1.781421803E+02	-7.340734763E+02	1.048346352E+03	1.294604382E+03	7.982435975E+01	0.000000000E+00	1.000000000E+00
	9000005	1	1	2	0	0	-1.781421803E+02	7.340734763E+02	1.002799637E+03	1.255470278E+03	1.000000000E-05	0.000000000E+00	0.000000000E+00

</event>
<event>
	4	1	3.267126300E-02	3.325003000E+03	7.818608000E-03	8.156562000E-02
	1	-1	0	0	501	0	0.000000000E+00	0.000000000E+00	2.900364242E+03	2.900364242E+03	5.040000000E-03	0.000000000E+00	-1.000000000E+00
	-2	-1	0	0	0	501	-0.000000000E+00	-0.000000000E+00	-9.529534142E+02	9.529534142E+02	2.550000000E-03	0.000000000E+00	1.000000000E+00
	-24	1	1	2	0	0	9.523792877E+02	-7.237182827E+02	2.310731364E+03	2.603199152E+03	7.982435975E+01	0.000000000E+00	-1.000000000E+00
	9000005	1	1	2	0	0	-9.523792877E+02	7.237182827E+02	-3.633205369E+02	1.250118504E+03	1.000000000E-05	0.000000000E+00	0.000000000E+00

</event>
<event>
	4	1	3.267126300E-02	1.331977000E+03	7.818608000E-03	9.004584000E-02
	1	-1	0	0	501	0	0.000000000E+00	0.000000000E+00	5.077733467E+02	5.077733467E+02	5.040000000E-03	0.000000000E+00	-1.000000000E+00
	-2	-1	0	0	0	501	-0.000000000E+00	-0.000000000E+00	-8.735014908E+02	8.735014908E+02	2.550000000E-03	0.000000000E+00	1.000000000E+00
	-24	1	1	2	0	0	3.290023578E+02	5.530812343E+02	-3.514369779E+02	7.375779830E+02	7.982435975E+01	0.000000000E+00	1.000000000E+00
	9000005	1	1	2	0	0	-3.290023578E+02	-5.530812343E+02	-1.429116630E+01	6.436968546E+02	1.000000000E-05	0.000000000E+00	0.000000000E+00

</event>
<event>
	4	1	3.267126300E-02	1.904542000E+03	7.818608000E-03	8.652599000E-02
	-2	-1	0	0	0	501	-0.000000000E+00	0.000000000E+00	4.364501360E+02	4.364501360E+02	5.040000000E-03	0.000000000E+00	1.000000000E+00
	1	-1	0	0	501	0	0.000000000E+00	-0.000000000E+00	-2.077718141E+03	2.077718141E+03	2.550000000E-03	0.000000000E+00	-1.000000000E+00
	-24	1	1	2	0	0	8.657460258E+02	3.762280669E+02	-6.740519312E+02	1.162661461E+03	7.982435975E+01	0.000000000E+00	1.000000000E+00
	9000005	1	1	2	0	0	-8.657460258E+02	-3.762280669E+02	-9.672160740E+02	1.351506816E+03	1.000000000E-05	0.000000000E+00	0.000000000E+00

</event>
<event>
	4	1	3.267126300E-02	1.976896000E+03	7.818608000E-03	8.617499000E-02
	1	-1	0	0	501	0	0.000000000E+00	0.000000000E+00	1.541728370E+03	1.541728370E+03	5.040000000E-03	0.000000000E+00	-1.000000000E+00
	-2	-1	0	0	0	501	-0.000000000E+00	-0.000000000E+00	-6.337237037E+02	6.337237037E+02	2.550000000E-03	0.000000000E+00	1.000000000E+00
	-24	1	1	2	0	0	5.225098174E+02	3.215569061E+02	-3.958264008E+02	7.344833702E+02	7.982435975E+01	0.000000000E+00	1.000000000E+00
	9000005	1	1	2	0	0	-5.225098174E+02	-3.215569061E+02	1.303831067E+03	1.440968704E+03	1.000000000E-05	0.000000000E+00	0.000000000E+00

</event>
<event>
	4	1	3.267126300E-02	2.420519000E+03	7.818608000E-03	8.431861000E-02
	-2	-1	0	0	0	501	-0.000000000E+00	0.000000000E+00	9.330669056E+02	9.330669056E+02	5.040000000E-03	0.000000000E+00	1.000000000E+00
	1	-1	0	0	501	0	0.000000000E+00	-0.000000000E+00	-1.569799235E+03	1.569799235E+03	2.550000000E-03	0.000000000E+00	-1.000000000E+00
	-24	1	1	2	0	0	9.542823499E+02	9.544533447E+01	4.423849400E+02	1.059169948E+03	7.982435975E+01	0.000000000E+00	1.000000000E+00
	9000005	1	1	2	0	0	-9.542823499E+02	-9.544533447E+01	-1.079117269E+03	1.443696192E+03	1.000000000E-05	0.000000000E+00	0.000000000E+00

</event>
<event>
	4	1	3.267126300E-02	1.617106000E+03	7.818608000E-03	8.810107000E-02
	-2	-1	0	0	0	501	-0.000000000E+00	0.000000000E+00	5.969919783E+02	5.969919783E+02	5.040000000E-03	0.000000000E+00	1.000000000E+00
	1	-1	0	0	501	0	0.000000000E+00	-0.000000000E+00	-1.095087284E+03	1.095087284E+03	2.550000000E-03	0.000000000E+00	-1.000000000E+00
	-24	1	1	2	0	0	3.205544162E+02	-5.791242913E+02	2.326222434E+02	7.061339215E+02	7.982435975E+01	0.000000000E+00	-1.000000000E+00
	9000005	1	1	2	0	0	-3.205544162E+02	5.791242913E+02	-7.307175494E+02	9.859453410E+02	1.000000000E-05	0.000000000E+00	0.000000000E+00

</event>
<event>
	4	1	3.267126300E-02	1.805488000E+03	7.818608000E-03	8.703387000E-02
	1	-1	0	0	501	0	0.000000000E+00	0.000000000E+00	8.049621283E+02	8.049621283E+02	5.040000000E-03	0.000000000E+00	-1.000000000E+00
	-2	-1	0	0	0	501	-0.000000000E+00	-0.000000000E+00	-1.012403355E+03	1.012403355E+03	2.550000000E-03	0.000000000E+00	1.000000000E+00
	-24	1	1	2	0	0	-5.033878744E+02	6.948159924E+02	1.728307013E+02	8.788691570E+02	7.982435975E+01	0.000000000E+00	-1.000000000E+00
	9000005	1	1	2	0	0	5.033878744E+02	-6.948159924E+02	-3.802719282E+02	9.384963265E+02	1.000000000E-05	0.000000000E+00	0.000000000E+00

</event>
<event>
	4	1	3.267126300E-02	1.291549000E+03	7.818608000E-03	9.036294000E-02
	1	-1	0	0	501	0	0.000000000E+00	0.000000000E+00	1.162936025E+03	1.162936025E+03	5.040000000E-03	0.000000000E+00	-1.000000000E+00
	-2	-1	0	0	0	501	-0.000000000E+00	-0.000000000E+00	-3.585965308E+02	3.585965308E+02	2.550000000E-03	0.000000000E+00	1.000000000E+00
	-24	1	1	2	0	0	5.978307084E+02	1.266810135E+02	6.404809445E+02	8.888404827E+02	7.982435975E+01	0.000000000E+00	1.000000000E+00
	9000005	1	1	2	0	0	-5.978307084E+02	-1.266810135E+02	1.638585497E+02	6.326920731E+02	1.000000000E-05	0.000000000E+00	0.000000000E+00

</event>
<event>
	4	1	3.267126300E-02	1.786358000E+03	7.818608000E-03	8.713588000E-02
	1	-1	0	0	501	0	0.000000000E+00	0.000000000E+00	5.163315395E+02	5.163315395E+02	5.040000000E-03	0.000000000E+00	-1.000000000E+00
	-2	-1	0	0	0	501	-0.000000000E+00	-0.000000000E+00	-1.545069827E+03	1.545069827E+03	2.550000000E-03	0.000000000E+00	1.000000000E+00
	-24	1	1	2	0	0	-8.668316079E+02	6.400161427E+01	-2.872362136E+02	9.188959755E+02	7.982435975E+01	0.000000000E+00	1.000000000E+00
	9000005	1	1	2	0	0	8.668316079E+02	-6.400161427E+01	-7.415020743E+02	1.142505391E+03	1.000000000E-05	0.000000000E+00	0.000000000E+00

</event>
<event>
	4	1	3.267126300E-02	1.418748000E+03	7.818608000E-03	8.940358000E-02
	-2	-1	0	0	0	501	-0.000000000E+00	0.000000000E+00	2.161170556E+02	2.161170556E+02	5.040000000E-03	0.000000000E+00	1.000000000E+00
	1	-1	0	0	501	0	0.000000000E+00	-0.000000000E+00	-2.328421775E+03	2.328421775E+03	2.550000000E-03	0.000000000E+00	-1.000000000E+00
	-24	1	1	2	0	0	3.512594134E+02	-5.447209981E+02	-5.524473701E+02	8.553795452E+02	7.982435975E+01	0.000000000E+00	1.000000000E+00
	9000005	1	1	2	0	0	-3.512594134E+02	5.447209981E+02	-1.559857350E+03	1.689159286E+03	1.000000000E-05	0.000000000E+00	0.000000000E+00

</event>
<event>
	4	1	3.267126300E-02	1.345343000E+03	7.818608000E-03	8.994361000E-02
	3	-1	0	0	501	0	0.000000000E+00	0.000000000E+00	3.764013867E+02	3.764014002E+02	1.010000000E-01	0.000000000E+00	-1.000000000E+00
	-2	-1	0	0	0	501	-0.000000000E+00	-0.000000000E+00	-1.202138772E+03	1.202138772E+03	2.550000000E-03	0.000000000E+00	1.000000000E+00
	-24	1	1	2	0	0	2.038832194E+02	-6.328434621E+02	-3.144358662E+02	7.397979840E+02	7.982435975E+01	0.000000000E+00	-1.000000000E+00
	9000005	1	1	2	0	0	-2.038832194E+02	6.328434621E+02	-5.113015189E+02	8.387421880E+02	1.000000000E-05	0.000000000E+00	0.000000000E+00

</event>
<event>
	4	1	3.267126300E-02	1.396511000E+03	7.818608000E-03	8.956348000E-02
	-2	-1	0	0	0	501	-0.000000000E+00	0.000000000E+00	3.928025692E+02	3.928025692E+02	5.040000000E-03	0.000000000E+00	1.000000000E+00
	1	-1	0	0	501	0	0.000000000E+00	-0.000000000E+00	-1.241236426E+03	1.241236426E+03	2.550000000E-03	0.000000000E+00	-1.000000000E+00
	-24	1	1	2	0	0	-5.811982473E+02	2.401741722E+02	-7.744871083E+02	1.000838271E+03	7.982435975E+01	0.000000000E+00	-1.000000000E+00
	9000005	1	1	2	0	0	5.811982473E+02	-2.401741722E+02	-7.394674881E+01	6.332007243E+02	1.000000000E-05	0.000000000E+00	0.000000000E+00

</event>
<event>
	4	1	3.267126300E-02	1.635155000E+03	7.818608000E-03	8.799238000E-02
	-4	-1	0	0	0	501	-0.000000000E+00	0.000000000E+00	4.336268162E+02	4.336286760E+02	1.010000000E-01	0.000000000E+00	1.000000000E+00
	3	-1	0	0	501	0	0.000000000E+00	-0.000000000E+00	-1.541488705E+03	1.541488708E+03	1.270000000E+00	0.000000000E+00	-1.000000000E+00
	-24	1	1	2	0	0	-5.962972157E+02	5.553727968E+02	-5.126956469E+02	9.660424771E+02	7.982435975E+01	0.000000000E+00	1.000000000E+00
	9000005	1	1	2	0	0	5.962972157E+02	-5.553727968E+02	-5.951662418E+02	1.009074907E+03	1.000000000E-05	0.000000000E+00	0.000000000E+00

</event>
<event>
	4	1	3.267126300E-02	1.480347000E+03	7.818608000E-03	8.897628000E-02
	-2	-1	0	0	0	501	-0.000000000E+00	0.000000000E+00	2.870052476E+02	2.870052476E+02	5.040000000E-03	0.000000000E+00	1.000000000E+00
	1	-1	0	0	501	0	0.000000000E+00	-0.000000000E+00	-1.908875084E+03	1.908875084E+03	2.550000000E-03	0.000000000E+00	-1.000000000E+00
	-24	1	1	2	0	0	-9.648080207E+01	-5.941332515E+02	-1.798240362E+02	6.332546708E+02	7.982435975E+01	0.000000000E+00	1.000000000E+00
	9000005	1	1	2	0	0	9.648080207E+01	5.941332515E+02	-1.442045801E+03	1.562625661E+03	1.000000000E-05	0.000000000E+00	0.000000000E+00

</event>
<event>
	4	1	3.267126300E-02	1.515800000E+03	7.818608000E-03	8.874014000E-02
	-2	-1	0	0	0	501	-0.000000000E+00	0.000000000E+00	3.440009592E+02	3.440009592E+02	5.040000000E-03	0.000000000E+00	1.000000000E+00
	1	-1	0	0	501	0	0.000000000E+00	-0.000000000E+00	-1.669798575E+03	1.669798575E+03	2.550000000E-03	0.000000000E+00	-1.000000000E+00
	-24	1	1	2	0	0	5.084484283E+02	5.585378851E+02	-7.010330953E+02	1.033587782E+03	7.982435975E+01	0.000000000E+00	-1.000000000E+00
	9000005	1	1	2	0	0	-5.084484283E+02	-5.585378851E+02	-6.247645200E+02	9.802117520E+02	1.000000000E-05	0.000000000E+00	0.000000000E+00

</event>
<event>
	4	1	3.267126300E-02	1.432705000E+03	7.818608000E-03	8.930479000E-02
	-2	-1	0	0	0	501	-0.000000000E+00	0.000000000E+00	6.108033320E+02	6.108033320E+02	1.010000000E-01	0.000000000E+00	1.000000000E+00
	3	-1	0	0	501	0	0.000000000E+00	-0.000000000E+00	-8.401412206E+02	8.401412267E+02	2.550000000E-03	0.000000000E+00	-1.000000000E+00
	-24	1	1	2	0	0	4.277965111E+02	5.480643769E+02	5.013289205E+01	7.016193066E+02	7.982435975E+01	0.000000000E+00	-1.000000000E+00
	9000005	1	1	2	0	0	-4.277965111E+02	-5.480643769E+02	-2.794707807E+02	7.493252521E+02	1.000000000E-05	0.000000000E+00	0.000000000E+00

</event>
<event>
	4	1	3.267126300E-02	1.995265000E+03	7.818608000E-03	8.608838000E-02
	1	-1	0	0	501	0	0.000000000E+00	0.000000000E+00	2.070007225E+03	2.070007225E+03	5.040000000E-03	0.000000000E+00	-1.000000000E+00
	-2	-1	0	0	0	501	-0.000000000E+00	-0.000000000E+00	-4.808051545E+02	4.808051545E+02	2.550000000E-03	0.000000000E+00	1.000000000E+00
	-24	1	1	2	0	0	-1.065196574E+02	-6.902266333E+02	1.703765175E+03	1.843080829E+03	7.982435975E+01	0.000000000E+00	-1.000000000E+00
	9000005	1	1	2	0	0	1.065196574E+02	6.902266333E+02	-1.145631043E+02	7.077315505E+02	1.000000000E-05	0.000000000E+00	0.000000000E+00

</event>
<event>
	4	1	3.267126300E-02	2.045598000E+03	7.818608000E-03	8.585594000E-02
	-2	-1	0	0	0	501	-0.000000000E+00	0.000000000E+00	8.111571656E+02	8.111571656E+02	5.040000000E-03	0.000000000E+00	1.000000000E+00
	1	-1	0	0	501	0	0.000000000E+00	-0.000000000E+00	-1.289660655E+03	1.289660655E+03	2.550000000E-03	0.000000000E+00	-1.000000000E+00
	-24	1	1	2	0	0	-3.878654942E+02	5.492428224E+02	-1.029018018E+03	1.231810590E+03	7.982435975E+01	0.000000000E+00	-1.000000000E+00
	9000005	1	1	2	0	0	3.878654942E+02	-5.492428224E+02	5.505145290E+02	8.690072303E+02	1.000000000E-05	0.000000000E+00	0.000000000E+00

</event>
<event>
	4	1	3.267126300E-02	1.468599000E+03	7.818608000E-03	8.905607000E-02
	1	-1	0	0	501	0	0.000000000E+00	0.000000000E+00	1.768370840E+03	1.768370840E+03	5.040000000E-03	0.000000000E+00	-1.000000000E+00
	-2	-1	0	0	0	501	-0.000000000E+00	-0.000000000E+00	-3.049111372E+02	3.049111372E+02	2.550000000E-03	0.000000000E+00	1.000000000E+00
	-24	1	1	2	0	0	-5.468758091E+02	-4.661178661E+02	9.319166603E+02	1.179482771E+03	7.982435975E+01	0.000000000E+00	1.000000000E+00
	9000005	1	1	2	0	0	5.468758091E+02	4.661178661E+02	5.315430420E+02	8.937992063E+02	1.000000000E-05	0.000000000E+00	0.000000000E+00

</event>
<event>
	4	1	3.267126300E-02	1.716805000E+03	7.818608000E-03	8.751837000E-02
	1	-1	0	0	501	0	0.000000000E+00	0.000000000E+00	3.020859586E+03	3.020859586E+03	5.040000000E-03	0.000000000E+00	-1.000000000E+00
	-2	-1	0	0	0	501	-0.000000000E+00	-0.000000000E+00	-2.439223088E+02	2.439223088E+02	2.550000000E-03	0.000000000E+00	1.000000000E+00
	-24	1	1	2	0	0	4.768494332E+02	4.296001043E+02	2.470117792E+03	2.553389016E+03	7.982435975E+01	0.000000000E+00	-1.000000000E+00
	9000005	1	1	2	0	0	-4.768494332E+02	-4.296001043E+02	3.068194850E+02	7.113928788E+02	1.000000000E-05	0.000000000E+00	0.000000000E+00

</event>
<event>
	6	1	3.267126300E-02	1.810019000E+03	7.818608000E-03	8.700990000E-02
	-1	-1	0	0	0	501	-0.000000000E+00	0.000000000E+00	1.016257961E+03	1.016257961E+03	2.550000000E-03	0.000000000E+00	1.000000000E+00
	2	-1	0	0	501	0	0.000000000E+00	-0.000000000E+00	-8.059391090E+02	8.059391090E+02	5.040000000E-03	0.000000000E+00	-1.000000000E+00
	24	2	1	2	0	0	7.935530262E+02	4.300582694E+02	1.377539157E+02	9.166904771E+02	8.166253208E+01	0.000000000E+00	0.000000000E+00
	-11	1	3	3	0	0	7.185264524E+02	3.970425695E+02	1.019210881E+02	8.272309067E+02	5.110000000E-04	0.000000000E+00	1.000000000E+00
	12	1	3	3	0	0	7.502657374E+01	3.301569990E+01	3.583282752E+01	8.945957040E+01	0.000000000E+00	0.000000000E+00	-1.000000000E+00
	9000005	1	1	2	0	0	-7.935530262E+02	-4.300582694E+02	7.256493656E+01	9.055065932E+02	1.000000000E-05	0.000000000E+00	0.000000000E+00

</event>
<event>
	4	1	3.267126300E-02	1.365045000E+03	7.818608000E-03	8.979517000E-02
	1	-1	0	0	501	0	0.000000000E+00	0.000000000E+00	1.753180340E+03	1.753180340E+03	5.040000000E-03	0.000000000E+00	-1.000000000E+00
	-2	-1	0	0	0	501	-0.000000000E+00	-0.000000000E+00	-2.657095606E+02	2.657095607E+02	2.550000000E-03	0.000000000E+00	1.000000000E+00
	-24	1	1	2	0	0	6.296490299E+02	-3.927447073E+01	3.702077565E+02	7.358166186E+02	7.982435975E+01	0.000000000E+00	-1.000000000E+00
	9000005	1	1	2	0	0	-6.296490299E+02	3.927447073E+01	1.117263023E+03	1.283073282E+03	1.000000000E-05	0.000000000E+00	0.000000000E+00

</event>
<event>
	4	1	3.267126300E-02	3.463861000E+03	7.818608000E-03	8.122408000E-02
	-2	-1	0	0	0	501	-0.000000000E+00	0.000000000E+00	1.802654236E+03	1.802654236E+03	5.040000000E-03	0.000000000E+00	1.000000000E+00
	1	-1	0	0	501	0	0.000000000E+00	-0.000000000E+00	-1.663981737E+03	1.663981737E+03	2.550000000E-03	0.000000000E+00	-1.000000000E+00
	-24	1	1	2	0	0	-1.275093433E+02	1.435785853E+03	1.028607830E+03	1.772609840E+03	7.982435975E+01	0.000000000E+00	1.000000000E+00
	9000005	1	1	2	0	0	1.275093433E+02	-1.435785853E+03	-8.899353310E+02	1.694026134E+03	1.000000000E-05	0.000000000E+00	0.000000000E+00

</event>
<event>
	4	1	3.267126300E-02	1.447197000E+03	7.818608000E-03	8.920346000E-02
	1	-1	0	0	501	0	0.000000000E+00	0.000000000E+00	1.618322128E+03	1.618322128E+03	5.040000000E-03	0.000000000E+00	-1.000000000E+00
	-2	-1	0	0	0	501	-0.000000000E+00	-0.000000000E+00	-3.235417337E+02	3.235417337E+02	2.550000000E-03	0.000000000E+00	1.000000000E+00
	-24	1	1	2	0	0	6.719349681E+02	8.856024414E+01	9.809637830E+02	1.194990121E+03	7.982435975E+01	0.000000000E+00	-1.000000000E+00
	9000005	1	1	2	0	0	-6.719349681E+02	-8.856024414E+01	3.138166110E+02	7.468737401E+02	1.000000000E-05	0.000000000E+00	0.000000000E+00

</event>
<event>
	4	1	3.267126300E-02	1.638004000E+03	7.818608000E-03	8.797535000E-02
	1	-1	0	0	501	0	0.000000000E+00	0.000000000E+00	3.918949514E+02	3.918949514E+02	5.040000000E-03	0.000000000E+00	-1.000000000E+00
	-2	-1	0	0	0	501	-0.000000000E+00	-0.000000000E+00	-1.711592881E+03	1.711592881E+03	2.550000000E-03	0.000000000E+00	1.000000000E+00
	-24	1	1	2	0	0	-3.556784428E+02	-5.454040018E+02	-2.758678447E+01	6.565863530E+02	7.982435975E+01	0.000000000E+00	-1.000000000E+00
	9000005	1	1	2	0	0	3.556784428E+02	5.454040018E+02	-1.292111145E+03	1.446901479E+03	1.000000000E-05	0.000000000E+00	0.000000000E+00

</event>
<event>
	4	1	3.267126300E-02	1.901374000E+03	7.818608000E-03	8.654173000E-02
	-2	-1	0	0	0	501	-0.000000000E+00	0.000000000E+00	8.851640085E+02	8.851640085E+02	5.040000000E-03	0.000000000E+00	1.000000000E+00
	1	-1	0	0	501	0	0.000000000E+00	-0.000000000E+00	-1.021060564E+03	1.021060564E+03	2.550000000E-03	0.000000000E+00	-1.000000000E+00
	-24	1	1	2	0	0	-3.253451438E+02	8.762250568E+02	-2.328134004E+02	9.665370249E+02	7.982435975E+01	0.000000000E+00	1.000000000E+00
	9000005	1	1	2	0	0	3.253451438E+02	-8.762250568E+02	9.691684464E+01	9.396875478E+02	1.000000000E-05	0.000000000E+00	0.000000000E+00

</event>
<event>
	4	1	3.267126300E-02	1.766993000E+03	7.818608000E-03	8.724052000E-02
	-4	-1	0	0	0	501	-0.000000000E+00	0.000000000E+00	5.027212647E+02	5.027228688E+02	1.010000000E-01	0.000000000E+00	1.000000000E+00
	3	-1	0	0	501	0	0.000000000E+00	-0.000000000E+00	-1.552678383E+03	1.552678386E+03	1.270000000E+00	0.000000000E+00	-1.000000000E+00
	-24	1	1	2	0	0	6.667699070E+02	8.408621319E+01	1.378325000E+02	6.906680293E+02	7.982435975E+01	0.000000000E+00	1.000000000E+00
	9000005	1	1	2	0	0	-6.667699070E+02	-8.408621319E+01	-1.187789618E+03	1.364733226E+03	1.000000000E-05	0.000000000E+00	0.000000000E+00

</event>
<event>
	4	1	3.267126300E-02	1.893639000E+03	7.818608000E-03	8.658029000E-02
	-2	-1	0	0	0	501	-0.000000000E+00	0.000000000E+00	3.294909973E+02	3.294909973E+02	5.040000000E-03	0.000000000E+00	1.000000000E+00
	1	-1	0	0	501	0	0.000000000E+00	-0.000000000E+00	-2.720764479E+03	2.720764479E+03	2.550000000E-03	0.000000000E+00	-1.000000000E+00
	-24	1	1	2	0	0	7.088581020E+02	-3.074595570E+02	-3.209925776E+02	8.404875676E+02	7.982435975E+01	0.000000000E+00	1.000000000E+00
	9000005	1	1	2	0	0	-7.088581020E+02	3.074595570E+02	-2.070280904E+03	2.209767908E+03	1.000000000E-05	0.000000000E+00	0.000000000E+00

</event>
<event>
	4	1	3.267126300E-02	1.804805000E+03	7.818608000E-03	8.703748000E-02
	-2	-1	0	0	0	501	-0.000000000E+00	0.000000000E+00	1.054880612E+03	1.054880612E+03	5.040000000E-03	0.000000000E+00	1.000000000E+00
	1	-1	0	0	501	0	0.000000000E+00	-0.000000000E+00	-7.719644745E+02	7.719644745E+02	2.550000000E-03	0.000000000E+00	-1.000000000E+00
	-24	1	1	2	0	0	7.699171027E+02	4.142001601E+01	-3.294164418E+02	8.422440758E+02	7.982435975E+01	0.000000000E+00	-1.000000000E+00
	9000005	1	1	2	0	0	-7.699171027E+02	-4.142001601E+01	6.123325796E+02	9.846010110E+02	1.000000000E-05	0.000000000E+00	0.000000000E+00

</event>
<event>
	4	1	3.267126300E-02	2.369194000E+03	7.818608000E-03	8.451128000E-02
	1	-1	0	0	501	0	0.000000000E+00	0.000000000E+00	7.739025555E+02	7.739025555E+02	5.040000000E-03	0.000000000E+00	-1.000000000E+00
	-2	-1	0	0	0	501	-0.000000000E+00	-0.000000000E+00	-1.813238859E+03	1.813238859E+03	2.550000000E-03	0.000000000E+00	1.000000000E+00
	-24	1	1	2	0	0	7.563110953E+02	-7.778920635E+02	-1.035885972E+03	1.502183148E+03	7.982435975E+01	0.000000000E+00	1.000000000E+00
	9000005	1	1	2	0	0	-7.563110953E+02	7.778920635E+02	-3.450331632E+00	1.084958267E+03	1.000000000E-05	0.000000000E+00	0.000000000E+00

</event>
<event>
	4	1	3.267126300E-02	2.360836000E+03	7.818608000E-03	8.454313000E-02
	1	-1	0	0	501	0	0.000000000E+00	0.000000000E+00	2.066478902E+03	2.066478902E+03	5.040000000E-03	0.000000000E+00	-1.000000000E+00
	-2	-1	0	0	0	501	-0.000000000E+00	-0.000000000E+00	-6.742807862E+02	6.742807862E+02	2.550000000E-03	0.000000000E+00	1.000000000E+00
	-24	1	1	2	0	0	-6.105414677E+02	-1.744643414E+02	1.850254057E+03	1.957807624E+03	7.982435975E+01	0.000000000E+00	-1.000000000E+00
	9000005	1	1	2	0	0	6.105414677E+02	1.744643414E+02	-4.580559407E+02	7.829520643E+02	1.000000000E-05	0.000000000E+00	0.000000000E+00

</event>
<event>
	4	1	3.267126300E-02	1.487682000E+03	7.818608000E-03	8.892686000E-02
	1	-1	0	0	501	0	0.000000000E+00	0.000000000E+00	2.471808541E+03	2.471808541E+03	5.040000000E-03	0.000000000E+00	-1.000000000E+00
	-2	-1	0	0	0	501	-0.000000000E+00	-0.000000000E+00	-2.238439134E+02	2.238439134E+02	2.550000000E-03	0.000000000E+00	1.000000000E+00
	-24	1	1	2	0	0	-2.808482879E+02	6.801798528E+02	1.295230440E+03	1.491815744E+03	7.982435975E+01	0.000000000E+00	1.000000000E+00
	9000005	1	1	2	0	0	2.808482879E+02	-6.801798528E+02	9.527341873E+02	1.203836710E+03	1.000000000E-05	0.000000000E+00	0.000000000E+00

</event>
<event>
	6	1	3.267126300E-02	2.557549000E+03	7.818608000E-03	8.382765000E-02
	-1	-1	0	0	0	501	-0.000000000E+00	0.000000000E+00	7.394552221E+02	7.394552221E+02	2.550000000E-03	0.000000000E+00	1.000000000E+00
	2	-1	0	0	501	0	0.000000000E+00	-0.000000000E+00	-2.211444945E+03	2.211444945E+03	5.040000000E-03	0.000000000E+00	-1.000000000E+00
	24	2	1	2	0	0	7.508720798E+02	8.745437430E+02	-1.011922261E+02	1.159888884E+03	8.041590942E+01	0.000000000E+00	0.000000000E+00
	-11	1	3	3	0	0	4.979068524E+02	5.201057691E+02	-6.353285371E+01	7.228123326E+02	5.110000000E-04	0.000000000E+00	1.000000000E+00
	12	1	3	3	0	0	2.529652274E+02	3.544379739E+02	-3.765937240E+01	4.370765516E+02	0.000000000E+00	0.000000000E+00	-1.000000000E+00
	9000005	1	1	2	0	0	-7.508720798E+02	-8.745437430E+02	-1.370797497E+03	1.791011283E+03	1.000000000E-05	0.000000000E+00	0.000000000E+00

</event>
<event>
	4	1	3.267126300E-02	2.556304000E+03	7.818608000E-03	8.383197000E-02
	-2	-1	0	0	0	501	-0.000000000E+00	0.000000000E+00	7.214406511E+02	7.214406511E+02	5.040000000E-03	0.000000000E+00	1.000000000E+00
	1	-1	0	0	501	0	0.000000000E+00	-0.000000000E+00	-2.264458254E+03	2.264458254E+03	2.550000000E-03	0.000000000E+00	-1.000000000E+00
	-24	1	1	2	0	0	1.265126174E+03	1.200969772E+02	-6.267444168E+02	1.419206825E+03	7.982435975E+01	0.000000000E+00	1.000000000E+00
	9000005	1	1	2	0	0	-1.265126174E+03	-1.200969772E+02	-9.162731861E+02	1.566692080E+03	1.000000000E-05	0.000000000E+00	0.000000000E+00

</event>
<event>
	4	1	3.267126300E-02	1.813213000E+03	7.818608000E-03	8.699304000E-02
	1	-1	0	0	501	0	0.000000000E+00	0.000000000E+00	1.171487034E+03	1.171487034E+03	5.040000000E-03	0.000000000E+00	-1.000000000E+00
	-2	-1	0	0	0	501	-0.000000000E+00	-0.000000000E+00	-7.016170485E+02	7.016170485E+02	2.550000000E-03	0.000000000E+00	1.000000000E+00
	-24	1	1	2	0	0	-5.407438143E+02	-3.329735698E+02	-4.304754149E+02	7.713340924E+02	7.982435975E+01	0.000000000E+00	1.000000000E+00
	9000005	1	1	2	0	0	5.407438143E+02	3.329735698E+02	9.003454002E+02	1.101769990E+03	1.000000000E-05	0.000000000E+00	0.000000000E+00

</event>
<event>
	4	1	3.267126300E-02	1.447639000E+03	7.818608000E-03	8.920039000E-02
	-2	-1	0	0	0	501	-0.000000000E+00	0.000000000E+00	3.908786298E+02	3.908786298E+02	5.040000000E-03	0.000000000E+00	1.000000000E+00
	1	-1	0	0	501	0	0.000000000E+00	-0.000000000E+00	-1.340350529E+03	1.340350529E+03	2.550000000E-03	0.000000000E+00	-1.000000000E+00
	-24	1	1	2	0	0	-4.579700119E+02	4.062877459E+02	-1.934140331E+01	6.176991845E+02	7.982435975E+01	0.000000000E+00	1.000000000E+00
	9000005	1	1	2	0	0	4.579700119E+02	-4.062877459E+02	-9.301304963E+02	1.113529975E+03	1.000000000E-05	0.000000000E+00	0.000000000E+00

</event>
<event>
	4	1	3.267126300E-02	1.689395000E+03	7.818608000E-03	8.767436000E-02
	-2	-1	0	0	0	501	-0.000000000E+00	0.000000000E+00	1.557244290E+02	1.557244290E+02	5.040000000E-03	0.000000000E+00	1.000000000E+00
	1	-1	0	0	501	0	0.000000000E+00	-0.000000000E+00	-4.581900904E+03	4.581900904E+03	2.550000000E-03	0.000000000E+00	-1.000000000E+00
	-24	1	1	2	0	0	7.195802982E+02	-7.802357190E+01	-3.428929416E+03	3.505397603E+03	7.982435975E+01	0.000000000E+00	-1.000000000E+00
	9000005	1	1	2	0	0	-7.195802982E+02	7.802357190E+01	-9.972470589E+02	1.232227731E+03	1.000000000E-05	0.000000000E+00	0.000000000E+00

</event>
<event>
	6	1	3.267126300E-02	1.930115000E+03	7.818608000E-03	8.640010000E-02
	2	-1	0	0	501	0	0.000000000E+00	0.000000000E+00	1.307504301E+03	1.307504301E+03	2.550000000E-03	0.000000000E+00	-1.000000000E+00
	-1	-1	0	0	0	501	-0.000000000E+00	-0.000000000E+00	-7.123002113E+02	7.123002113E+02	5.040000000E-03	0.000000000E+00	1.000000000E+00
	24	2	1	2	0	0	3.081324325E+02	-8.007525247E+02	-1.605892306E+02	8.764000585E+02	7.834513207E+01	0.000000000E+00	0.000000000E+00
	-11	1	3	3	0	0	2.280518086E+02	-6.748797909E+02	-1.338676256E+02	7.248385343E+02	5.110000000E-04	0.000000000E+00	1.000000000E+00
	12	1	3	3	0	0	8.008062397E+01	-1.258727338E+02	-2.672160493E+01	1.515615242E+02	0.000000000E+00	0.000000000E+00	-1.000000000E+00
	9000005	1	1	2	0	0	-3.081324325E+02	8.007525247E+02	7.557933200E+02	1.143404454E+03	1.000000000E-05	0.000000000E+00	0.000000000E+00

</event>
<event>
	4	1	3.267126300E-02	1.418406000E+03	7.818608000E-03	8.940602000E-02
	-2	-1	0	0	0	501	-0.000000000E+00	0.000000000E+00	7.021771697E+02	7.021771697E+02	5.040000000E-03	0.000000000E+00	1.000000000E+00
	1	-1	0	0	501	0	0.000000000E+00	-0.000000000E+00	-7.162992699E+02	7.162992699E+02	2.550000000E-03	0.000000000E+00	-1.000000000E+00
	-24	1	1	2	0	0	6.655400117E+02	-6.715719605E+01	2.216952276E+02	7.092068094E+02	7.982435975E+01	0.000000000E+00	1.000000000E+00
	9000005	1	1	2	0	0	-6.655400117E+02	6.715719605E+01	-2.358173278E+02	7.092696302E+02	1.000000000E-05	0.000000000E+00	0.000000000E+00

</event>
<event>
	4	1	3.267126300E-02	1.339672000E+03	7.818608000E-03	8.998683000E-02
	1	-1	0	0	501	0	0.000000000E+00	0.000000000E+00	1.933169381E+03	1.933169381E+03	5.040000000E-03	0.000000000E+00	-1.000000000E+00
	-4	-1	0	0	0	501	-0.000000000E+00	-0.000000000E+00	-2.320936652E+02	2.320971398E+02	1.270000000E+00	0.000000000E+00	1.000000000E+00
	-24	1	1	2	0	0	-2.388047972E+02	-6.020635444E+02	1.114130498E+03	1.291188189E+03	7.982435975E+01	0.000000000E+00	1.000000000E+00
	9000005	1	1	2	0	0	2.388047972E+02	6.020635444E+02	5.869452175E+02	8.740783323E+02	1.000000000E-05	0.000000000E+00	0.000000000E+00

</event>
<event>
	4	1	3.267126300E-02	1.314313000E+03	7.818608000E-03	9.018292000E-02
	1	-1	0	0	501	0	0.000000000E+00	0.000000000E+00	4.422965648E+02	4.422965648E+02	5.040000000E-03	0.000000000E+00	-1.000000000E+00
	-2	-1	0	0	0	501	-0.000000000E+00	-0.000000000E+00	-9.763909982E+02	9.763909982E+02	2.550000000E-03	0.000000000E+00	1.000000000E+00
	-24	1	1	2	0	0	-1.846338059E+02	-5.952516074E+02	-4.846160615E+02	7.934978096E+02	7.982435975E+01	0.000000000E+00	1.000000000E+00
	9000005	1	1	2	0	0	1.846338059E+02	5.952516074E+02	-4.947837189E+01	6.251897534E+02	1.000000000E-05	0.000000000E+00	0.000000000E+00

</event>
<event>
	4	1	3.267126300E-02	2.239734000E+03	7.818608000E-03	8.502070000E-02
	1	-1	0	0	501	0	0.000000000E+00	0.000000000E+00	9.864178159E+02	9.864178159E+02	5.040000000E-03	0.000000000E+00	-1.000000000E+00
	-2	-1	0	0	0	501	-0.000000000E+00	-0.000000000E+00	-1.271369896E+03	1.271369896E+03	2.550000000E-03	0.000000000E+00	1.000000000E+00
	-24	1	1	2	0	0	-9.775022395E+02	3.046719897E+01	-6.896905239E+02	1.199368094E+03	7.982435975E+01	0.000000000E+00	1.000000000E+00
	9000005	1	1	2	0	0	9.775022395E+02	-3.046719897E+01	4.047384440E+02	1.058419617E+03	1.000000000E-05	0.000000000E+00	0.000000000E+00

</event>
<event>
	4	1	3.267126300E-02	1.301010000E+03	7.818608000E-03	9.028765000E-02
	3	-1	0	0	501	0	0.000000000E+00	0.000000000E+00	3.966766258E+02	3.966766387E+02	1.010000000E-01	0.000000000E+00	-1.000000000E+00
	-4	-1	0	0	0	501	-0.000000000E+00	-0.000000000E+00	-1.066753103E+03	1.066753859E+03	1.270000000E+00	0.000000000E+00	1.000000000E+00
	-24	1	1	2	0	0	5.468617289E+02	3.246174398E+02	-4.765325436E+02	7.986798021E+02	7.982435975E+01	0.000000000E+00	-1.000000000E+00
	9000005	1	1	2	0	0	-5.468617289E+02	-3.246174398E+02	-1.935439333E+02	6.647506953E+02	1.000000000E-05	0.000000000E+00	0.000000000E+00

</event>
<event>
	4	1	3.267126300E-02	1.679163000E+03	7.818608000E-03	8.773338000E-02
	-2	-1	0	0	0	501	-0.000000000E+00	0.000000000E+00	7.698102143E+02	7.698102143E+02	5.040000000E-03	0.000000000E+00	1.000000000E+00
	1	-1	0	0	501	0	0.000000000E+00	-0.000000000E+00	-9.156767535E+02	9.156767535E+02	2.550000000E-03	0.000000000E+00	-1.000000000E+00
	-24	1	1	2	0	0	-6.076266610E+02	-5.177929156E+02	-3.278160274E+02	8.666919515E+02	7.982435975E+01	0.000000000E+00	-1.000000000E+00
	9000005	1	1	2	0	0	6.076266610E+02	5.177929156E+02	1.819494881E+02	8.187950164E+02	1.000000000E-05	0.000000000E+00	0.000000000E+00

</event>
<event>
	4	1	3.267126300E-02	1.561496000E+03	7.818608000E-03	8.844558000E-02
	1	-1	0	0	501	0	0.000000000E+00	0.000000000E+00	1.577926425E+03	1.577926425E+03	5.040000000E-03	0.000000000E+00	-1.000000000E+00
	-4	-1	0	0	0	501	-0.000000000E+00	-0.000000000E+00	-3.863080575E+02	3.863101451E+02	1.270000000E+00	0.000000000E+00	1.000000000E+00
	-24	1	1	2	0	0	4.095864347E+02	5.163502123E+02	7.565963159E+01	6.681877711E+02	7.982435975E+01	0.000000000E+00	1.000000000E+00
	9000005	1	1	2	0	0	-4.095864347E+02	-5.163502123E+02	1.115958736E+03	1.296048799E+03	1.000000000E-05	0.000000000E+00	0.000000000E+00

</event>
<event>
	4	1	3.267126300E-02	1.474914000E+03	7.818608000E-03	8.901309000E-02
	-2	-1	0	0	0	501	-0.000000000E+00	0.000000000E+00	6.672919758E+02	6.672919758E+02	5.040000000E-03	0.000000000E+00	1.000000000E+00
	1	-1	0	0	501	0	0.000000000E+00	-0.000000000E+00	-8.149993248E+02	8.149993248E+02	2.550000000E-03	0.000000000E+00	-1.000000000E+00
	-24	1	1	2	0	0	-6.947509689E+02	-2.221672639E+02	-1.674000741E+02	7.526167119E+02	7.982435975E+01	0.000000000E+00	-1.000000000E+00
	9000005	1	1	2	0	0	6.947509689E+02	2.221672639E+02	1.969272504E+01	7.296745886E+02	1.000000000E-05	0.000000000E+00	0.000000000E+00

</event>
<event>
	6	1	3.267126300E-02	1.386972000E+03	7.818608000E-03	8.963303000E-02
	2	-1	0	0	501	0	0.000000000E+00	0.000000000E+00	1.116031035E+03	1.116031035E+03	2.550000000E-03	0.000000000E+00	-1.000000000E+00
	-1	-1	0	0	0	501	-0.000000000E+00	-0.000000000E+00	-4.309223293E+02	4.309223293E+02	5.040000000E-03	0.000000000E+00	1.000000000E+00
	24	2	1	2	0	0	-6.806968102E+02	1.743160774E+01	2.150941174E+02	7.195684954E+02	8.866415189E+01	0.000000000E+00	0.000000000E+00
	-11	1	3	3	0	0	-6.832774781E+02	1.918559034E+01	2.140256092E+02	7.162703123E+02	5.110000000E-04	0.000000000E+00	1.000000000E+00
	12	1	3	3	0	0	2.580667875E+00	-1.753982608E+00	1.068508176E+00	3.298183044E+00	0.000000000E+00	0.000000000E+00	-1.000000000E+00
	9000005	1	1	2	0	0	6.806968102E+02	-1.743160774E+01	4.700145885E+02	8.273848692E+02	1.000000000E-05	0.000000000E+00	0.000000000E+00

</event>
<event>
	4	1	3.267126300E-02	2.525932000E+03	7.818608000E-03	8.393805000E-02
	-2	-1	0	0	0	501	-0.000000000E+00	0.000000000E+00	1.238898153E+03	1.238898153E+03	5.040000000E-03	0.000000000E+00	1.000000000E+00
	1	-1	0	0	501	0	0.000000000E+00	-0.000000000E+00	-1.287501354E+03	1.287501354E+03	2.550000000E-03	0.000000000E+00	-1.000000000E+00
	-24	1	1	2	0	0	8.406962097E+02	-2.893173759E+02	-9.197144652E+02	1.281686891E+03	7.982435975E+01	0.000000000E+00	-1.000000000E+00
	9000005	1	1	2	0	0	-8.406962097E+02	2.893173759E+02	8.711112642E+02	1.244712616E+03	1.000000000E-05	0.000000000E+00	0.000000000E+00

</event>
<event>
	4	1	3.267126300E-02	1.348592000E+03	7.818608000E-03	8.991894000E-02
	1	-1	0	0	501	0	0.000000000E+00	0.000000000E+00	1.472719540E+03	1.472719540E+03	5.040000000E-03	0.000000000E+00	-1.000000000E+00
	-2	-1	0	0	0	501	-0.000000000E+00	-0.000000000E+00	-3.087317968E+02	3.087317968E+02	2.550000000E-03	0.000000000E+00	1.000000000E+00
	-24	1	1	2	0	0	-4.612142127E+02	-4.876397857E+02	6.254671314E+02	9.209191992E+02	7.982435975E+01	0.000000000E+00	1.000000000E+00
	9000005	1	1	2	0	0	4.612142127E+02	4.876397857E+02	5.385206122E+02	8.605321379E+02	1.000000000E-05	0.000000000E+00	0.000000000E+00

</event>
<event>
	4	1	3.267126300E-02	1.306535000E+03	7.818608000E-03	9.024399000E-02
	1	-1	0	0	501	0	0.000000000E+00	0.000000000E+00	1.096710327E+03	1.096710327E+03	5.040000000E-03	0.000000000E+00	-1.000000000E+00
	-2	-1	0	0	0	501	-0.000000000E+00	-0.000000000E+00	-3.891257420E+02	3.891257420E+02	2.550000000E-03	0.000000000E+00	1.000000000E+00
	-24	1	1	2	0	0	-5.051168862E+02	-4.058258306E+02	4.246660007E+02	7.788137223E+02	7.982435975E+01	0.000000000E+00	1.000000000E+00
	9000005	1	1	2	0	0	5.051168862E+02	4.058258306E+02	2.829185846E+02	7.070223469E+02	1.000000000E-05	0.000000000E+00	0.000000000E+00

</event>
<event>
	4	1	3.267126300E-02	1.969081000E+03	7.818608000E-03	8.621214000E-02
	1	-1	0	0	501	0	0.000000000E+00	0.000000000E+00	7.707709418E+02	7.707709418E+02	5.040000000E-03	0.000000000E+00	-1.000000000E+00
	-2	-1	0	0	0	501	-0.000000000E+00	-0.000000000E+00	-1.257597442E+03	1.257597442E+03	2.550000000E-03	0.000000000E+00	1.000000000E+00
	-24	1	1	2	0	0	2.109567424E+02	9.053698452E+02	-5.727053058E+02	1.094787924E+03	7.982435975E+01	0.000000000E+00	1.000000000E+00
	9000005	1	1	2	0	0	-2.109567424E+02	-9.053698452E+02	8.587880622E+01	9.335804589E+02	1.000000000E-05	0.000000000E+00	0.000000000E+00

</event>
<event>
	4	1	3.267126300E-02	1.367748000E+03	7.818608000E-03	8.977501000E-02
	1	-1	0	0	501	0	0.000000000E+00	0.000000000E+00	9.508135945E+02	9.508135945E+02	5.040000000E-03	0.000000000E+00	-1.000000000E+00
	-2	-1	0	0	0	501	-0.000000000E+00	-0.000000000E+00	-4.918772668E+02	4.918772668E+02	2.550000000E-03	0.000000000E+00	1.000000000E+00
	-24	1	1	2	0	0	1.530707667E+01	-6.335287182E+02	-3.431222803E+01	6.396422444E+02	7.982435975E+01	0.000000000E+00	1.000000000E+00
	9000005	1	1	2	0	0	-1.530707667E+01	6.335287182E+02	4.932485557E+02	8.030486169E+02	1.000000000E-05	0.000000000E+00	0.000000000E+00

</event>
<event>
	4	1	3.267126300E-02	1.778267000E+03	7.818608000E-03	8.717943000E-02
	1	-1	0	0	501	0	0.000000000E+00	0.000000000E+00	1.142590784E+03	1.142590784E+03	5.040000000E-03	0.000000000E+00	-1.000000000E+00
	-2	-1	0	0	0	501	-0.000000000E+00	-0.000000000E+00	-6.918999044E+02	6.918999044E+02	2.550000000E-03	0.000000000E+00	1.000000000E+00
	-24	1	1	2	0	0	-6.725677438E+02	-9.280139530E+01	-3.635927023E+02	7.742939045E+02	7.982435975E+01	0.000000000E+00	1.000000000E+00
	9000005	1	1	2	0	0	6.725677438E+02	9.280139530E+01	8.142835821E+02	1.060196784E+03	1.000000000E-05	0.000000000E+00	0.000000000E+00

</event>
<event>
	4	1	3.267126300E-02	1.595219000E+03	7.818608000E-03	8.823491000E-02
	-2	-1	0	0	0	501	-0.000000000E+00	0.000000000E+00	2.638735293E+02	2.638735293E+02	5.040000000E-03	0.000000000E+00	1.000000000E+00
	1	-1	0	0	501	0	0.000000000E+00	-0.000000000E+00	-2.410930128E+03	2.410930128E+03	2.550000000E-03	0.000000000E+00	-1.000000000E+00
	-24	1	1	2	0	0	-4.371783367E+02	5.969679936E+02	-5.859159075E+02	9.471879763E+02	7.982435975E+01	0.000000000E+00	-1.000000000E+00
	9000005	1	1	2	0	0	4.371783367E+02	-5.969679936E+02	-1.561140692E+03	1.727615681E+03	1.000000000E-05	0.000000000E+00	0.000000000E+00

</event>
<event>
	4	1	3.267126300E-02	1.328547000E+03	7.818608000E-03	9.007229000E-02
	1	-1	0	0	501	0	0.000000000E+00	0.000000000E+00	1.743195543E+03	1.743195543E+03	5.040000000E-03	0.000000000E+00	-1.000000000E+00
	-2	-1	0	0	0	501	-0.000000000E+00	-0.000000000E+00	-2.531322743E+02	2.531322743E+02	2.550000000E-03	0.000000000E+00	1.000000000E+00
	-24	1	1	2	0	0	5.542274614E+02	2.960602299E+02	4.351897656E+02	7.684932005E+02	7.982435975E+01	0.000000000E+00	-1.000000000E+00
	9000005	1	1	2	0	0	-5.542274614E+02	-2.960602299E+02	1.054873503E+03	1.227834616E+03	1.000000000E-05	0.000000000E+00	0.000000000E+00

</event>
<event>
	4	1	3.267126300E-02	2.379326000E+03	7.818608000E-03	8.447284000E-02
	-2	-1	0	0	0	501	-0.000000000E+00	0.000000000E+00	5.388349590E+02	5.388349590E+02	5.040000000E-03	0.000000000E+00	1.000000000E+00
	1	-1	0	0	501	0	0.000000000E+00	-0.000000000E+00	-2.626589010E+03	2.626589010E+03	2.550000000E-03	0.000000000E+00	-1.000000000E+00
	-24	1	1	2	0	0	1.092280755E+03	-2.294133514E+01	-1.666942369E+03	1.994660960E+03	7.982435975E+01	0.000000000E+00	-1.000000000E+00
	9000005	1	1	2	0	0	-1.092280755E+03	2.294133514E+01	-4.208116817E+02	1.170763009E+03	1.000000000E-05	0.000000000E+00	0.000000000E+00

</event>
<event>
	4	1	3.267126300E-02	1.610129000E+03	7.818608000E-03	8.814349000E-02
	1	-1	0	0	501	0	0.000000000E+00	0.000000000E+00	7.959405890E+02	7.959405890E+02	5.040000000E-03	0.000000000E+00	-1.000000000E+00
	-2	-1	0	0	0	501	-0.000000000E+00	-0.000000000E+00	-8.142930806E+02	8.142930807E+02	2.550000000E-03	0.000000000E+00	1.000000000E+00
	-24	1	1	2	0	0	7.982230706E+02	8.536722737E+01	-3.154373509E+01	8.073503388E+02	7.982435975E+01	0.000000000E+00	1.000000000E+00
	9000005	1	1	2	0	0	-7.982230706E+02	-8.536722737E+01	1.319124342E+01	8.028833308E+02	1.000000000E-05	0.000000000E+00	0.000000000E+00

</event>
<event>
	4	1	3.267126300E-02	1.257184000E+03	7.818608000E-03	9.064225000E-02
	1	-1	0	0	501	0	0.000000000E+00	0.000000000E+00	3.496429819E+02	3.496429819E+02	5.040000000E-03	0.000000000E+00	-1.000000000E+00
	-2	-1	0	0	0	501	-0.000000000E+00	-0.000000000E+00	-1.130089463E+03	1.130089463E+03	2.550000000E-03	0.000000000E+00	1.000000000E+00
	-24	1	1	2	0	0	-6.114937864E+02	-1.342522079E+02	-3.917493929E+02	7.428242197E+02	7.982435975E+01	0.000000000E+00	-1.000000000E+00
	9000005	1	1	2	0	0	6.114937864E+02	1.342522079E+02	-3.886970886E+02	7.369082255E+02	1.000000000E-05	0.000000000E+00	0.000000000E+00

</event>
<event>
	4	1	3.267126300E-02	1.340915000E+03	7.818608000E-03	8.997734000E-02
	-2	-1	0	0	0	501	-0.000000000E+00	0.000000000E+00	2.396258474E+03	2.396258474E+03	5.040000000E-03	0.000000000E+00	1.000000000E+00
	1	-1	0	0	501	0	0.000000000E+00	-0.000000000E+00	-1.875895862E+02	1.875895862E+02	2.550000000E-03	0.000000000E+00	-1.000000000E+00
	-24	1	1	2	0	0	6.259379800E+02	2.333411143E+02	1.090338284E+03	1.281193168E+03	7.982435975E+01	0.000000000E+00	1.000000000E+00
	9000005	1	1	2	0	0	-6.259379800E+02	-2.333411143E+02	1.118330604E+03	1.302654893E+03	1.000000000E-05	0.000000000E+00	0.000000000E+00

</event>
<event>
	4	1	3.267126300E-02	1.974500000E+03	7.818608000E-03	8.618637000E-02
	-2	-1	0	0	0	501	-0.000000000E+00	0.000000000E+00	2.502505906E+02	2.502505906E+02	5.040000000E-03	0.000000000E+00	1.000000000E+00
	1	-1	0	0	501	0	0.000000000E+00	-0.000000000E+00	-3.894744900E+03	3.894744900E+03	2.550000000E-03	0.000000000E+00	-1.000000000E+00
	-24	1	1	2	0	0	7.003467399E+02	1.193219493E+02	-3.259432154E+03	3.336913721E+03	7.982435975E+01	0.000000000E+00	-1.000000000E+00
	9000005	1	1	2	0	0	-7.003467399E+02	-1.193219493E+02	-3.850621555E+02	8.080817702E+02	1.000000000E-05	0.000000000E+00	0.000000000E+00

</event>
<event>
	4	1	3.267126300E-02	1.510756000E+03	7.818608000E-03	8.877332000E-02
	-2	-1	0	0	0	501	-0.000000000E+00	0.000000000E+00	8.612111857E+02	8.612111857E+02	5.040000000E-03	0.000000000E+00	1.000000000E+00
	1	-1	0	0	501	0	0.000000000E+00	-0.000000000E+00	-6.625506794E+02	6.625506794E+02	2.550000000E-03	0.000000000E+00	-1.000000000E+00
	-24	1	1	2	0	0	7.451413001E+01	-6.755476446E+02	-2.279924710E+02	7.212970754E+02	7.982435975E+01	0.000000000E+00	-1.000000000E+00
	9000005	1	1	2	0	0	-7.451413001E+01	6.755476446E+02	4.266529773E+02	8.024647897E+02	1.000000000E-05	0.000000000E+00	0.000000000E+00

</event>
<event>
	4	1	3.267126300E-02	2.079613000E+03	7.818608000E-03	8.570277000E-02
	-2	-1	0	0	0	501	-0.000000000E+00	0.000000000E+00	9.443874503E+02	9.443874503E+02	5.040000000E-03	0.000000000E+00	1.000000000E+00
	1	-1	0	0	501	0	0.000000000E+00	-0.000000000E+00	-1.144866957E+03	1.144866957E+03	2.550000000E-03	0.000000000E+00	-1.000000000E+00
	-24	1	1	2	0	0	-4.470776707E+01	-1.032982199E+03	-1.955013880E+02	1.055293195E+03	7.982435975E+01	0.000000000E+00	-1.000000000E+00
	9000005	1	1	2	0	0	4.470776707E+01	1.032982199E+03	-4.978118937E+00	1.033961212E+03	1.000000000E-05	0.000000000E+00	0.000000000E+00

</event>
<event>
	4	1	3.267126300E-02	2.085735000E+03	7.818608000E-03	8.567553000E-02
	1	-1	0	0	501	0	0.000000000E+00	0.000000000E+00	1.358451910E+03	1.358451910E+03	5.040000000E-03	0.000000000E+00	-1.000000000E+00
	-2	-1	0	0	0	501	-0.000000000E+00	-0.000000000E+00	-8.005972180E+02	8.005972180E+02	2.550000000E-03	0.000000000E+00	1.000000000E+00
	-24	1	1	2	0	0	4.158210104E+02	8.477541106E+02	-1.751823175E+02	9.636674309E+02	7.982435975E+01	0.000000000E+00	1.000000000E+00
	9000005	1	1	2	0	0	-4.158210104E+02	-8.477541106E+02	7.330370100E+02	1.195381697E+03	1.000000000E-05	0.000000000E+00	0.000000000E+00

</event>
<event>
	4	1	3.267126300E-02	1.723576000E+03	7.818608000E-03	8.748031000E-02
	1	-1	0	0	501	0	0.000000000E+00	0.000000000E+00	1.731392779E+03	1.731392779E+03	5.040000000E-03	0.000000000E+00	-1.000000000E+00
	-2	-1	0	0	0	501	-0.000000000E+00	-0.000000000E+00	-4.289484570E+02	4.289484570E+02	2.550000000E-03	0.000000000E+00	1.000000000E+00
	-24	1	1	2	0	0	6.319117935E+02	-4.991377279E+02	2.744208244E+02	8.544762744E+02	7.982435975E+01	0.000000000E+00	1.000000000E+00
	9000005	1	1	2	0	0	-6.319117935E+02	4.991377279E+02	1.028023497E+03	1.305864961E+03	1.000000000E-05	0.000000000E+00	0.000000000E+00

</event>
<event>
	4	1	3.267126300E-02	1.538645000E+03	7.818608000E-03	8.859154000E-02
	-2	-1	0	0	0	501	-0.000000000E+00	0.000000000E+00	3.234734206E+02	3.234734206E+02	5.040000000E-03	0.000000000E+00	1.000000000E+00
	1	-1	0	0	501	0	0.000000000E+00	-0.000000000E+00	-1.829692408E+03	1.829692408E+03	2.550000000E-03	0.000000000E+00	-1.000000000E+00
	-24	1	1	2	0	0	1.219489636E+02	7.514769552E+02	-6.217456446E+02	9.861687173E+02	7.982435975E+01	0.000000000E+00	-1.000000000E+00
	9000005	1	1	2	0	0	-1.219489636E+02	-7.514769552E+02	-8.844733430E+02	1.166997112E+03	1.000000000E-05	0.000000000E+00	0.000000000E+00

</event>
<event>
	4	1	3.267126300E-02	2.861192000E+03	7.818608000E-03	8.284519000E-02
	-2	-1	0	0	0	501	-0.000000000E+00	0.000000000E+00	6.833522968E+02	6.833522968E+02	5.040000000E-03	0.000000000E+00	1.000000000E+00
	1	-1	0	0	501	0	0.000000000E+00	-0.000000000E+00	-2.994947805E+03	2.994947805E+03	2.550000000E-03	0.000000000E+00	-1.000000000E+00
	-24	1	1	2	0	0	4.856255231E+02	6.585724976E+02	3.501629656E+02	8.936083673E+02	7.982435975E+01	0.000000000E+00	1.000000000E+00
	9000005	1	1	2	0	0	-4.856255231E+02	-6.585724976E+02	-2.661758474E+03	2.784691734E+03	1.000000000E-05	0.000000000E+00	0.000000000E+00

</event>
<event>
	4	1	3.267126300E-02	1.415552000E+03	7.818608000E-03	8.942638000E-02
	1	-1	0	0	501	0	0.000000000E+00	0.000000000E+00	7.066342239E+02	7.066342239E+02	5.040000000E-03	0.000000000E+00	-1.000000000E+00
	-2	-1	0	0	0	501	-0.000000000E+00	-0.000000000E+00	-7.089191838E+02	7.089191838E+02	2.550000000E-03	0.000000000E+00	1.000000000E+00
	-24	1	1	2	0	0	-6.875397246E+02	1.386687545E+02	-7.747289339E+01	7.101505995E+02	7.982435975E+01	0.000000000E+00	-1.000000000E+00
	9000005	1	1	2	0	0	6.875397246E+02	-1.386687545E+02	7.518793343E+01	7.054028082E+02	1.000000000E-05	0.000000000E+00	0.000000000E+00

</event>
<event>
	4	1	3.267126300E-02	1.345940000E+03	7.818608000E-03	8.993907000E-02
	-4	-1	0	0	0	501	-0.000000000E+00	0.000000000E+00	5.633304892E+02	5.633319208E+02	5.040000000E-03	0.000000000E+00	1.000000000E+00
	1	-1	0	0	501	0	0.000000000E+00	-0.000000000E+00	-8.039462248E+02	8.039462248E+02	1.270000000E+00	0.000000000E+00	-1.000000000E+00
	-24	1	1	2	0	0	-3.701348988E+02	4.860993427E+02	1.600852932E+02	6.366251988E+02	7.982435975E+01	0.000000000E+00	1.000000000E+00
	9000005	1	1	2	0	0	3.701348988E+02	-4.860993427E+02	-4.007010288E+02	7.306529468E+02	1.000000000E-05	0.000000000E+00	0.000000000E+00

</event>
<event>
	4	1	3.267126300E-02	3.548574000E+03	7.818608000E-03	8.102374000E-02
	-2	-1	0	0	0	501	-0.000000000E+00	0.000000000E+00	1.457886333E+03	1.457886333E+03	5.040000000E-03	0.000000000E+00	1.000000000E+00
	1	-1	0	0	501	0	0.000000000E+00	-0.000000000E+00	-2.159354899E+03	2.159354899E+03	2.550000000E-03	0.000000000E+00	-1.000000000E+00
	-24	1	1	2	0	0	1.697784380E+03	-9.083710038E+01	1.630125394E+02	1.709873737E+03	7.982435975E+01	0.000000000E+00	1.000000000E+00
	9000005	1	1	2	0	0	-1.697784380E+03	9.083710038E+01	-8.644811051E+02	1.907367495E+03	1.000000000E-05	0.000000000E+00	0.000000000E+00

</event>
<event>
	6	1	3.267126300E-02	1.757994000E+03	7.818608000E-03	8.728962000E-02
	2	-1	0	0	501	0	0.000000000E+00	0.000000000E+00	1.811736039E+03	1.811736039E+03	2.550000000E-03	0.000000000E+00	-1.000000000E+00
	-1	-1	0	0	0	501	-0.000000000E+00	-0.000000000E+00	-4.264615469E+02	4.264615470E+02	5.040000000E-03	0.000000000E+00	1.000000000E+00
	24	2	1	2	0	0	-4.130075771E+02	6.996482199E+02	2.730810205E+02	8.608605871E+02	8.015495210E+01	0.000000000E+00	0.000000000E+00
	-11	1	3	3	0	0	-3.986886349E+02	6.454959093E+02	2.397213672E+02	7.956657152E+02	5.110000000E-04	0.000000000E+00	1.000000000E+00
	12	1	3	3	0	0	-1.431894211E+01	5.415231065E+01	3.335965323E+01	6.519487185E+01	0.000000000E+00	0.000000000E+00	-1.000000000E+00
	9000005	1	1	2	0	0	4.130075771E+02	-6.996482199E+02	1.112193472E+03	1.377336999E+03	1.000000000E-05	0.000000000E+00	0.000000000E+00

</event>
<event>
	4	1	3.267126300E-02	1.772626000E+03	7.818608000E-03	8.720993000E-02
	1	-1	0	0	501	0	0.000000000E+00	0.000000000E+00	6.086003971E+02	6.086003972E+02	5.040000000E-03	0.000000000E+00	-1.000000000E+00
	-2	-1	0	0	0	501	-0.000000000E+00	-0.000000000E+00	-1.290749971E+03	1.290749971E+03	2.550000000E-03	0.000000000E+00	1.000000000E+00
	-24	1	1	2	0	0	-7.432607308E+02	-1.944938699E+02	-8.113965382E+02	1.120268115E+03	7.982435975E+01	0.000000000E+00	1.000000000E+00
	9000005	1	1	2	0	0	7.432607308E+02	1.944938699E+02	1.292469641E+02	7.790822531E+02	1.000000000E-05	0.000000000E+00	0.000000000E+00

</event>
<event>
	4	1	3.267126300E-02	1.452452000E+03	7.818608000E-03	8.916702000E-02
	1	-1	0	0	501	0	0.000000000E+00	0.000000000E+00	3.608897674E+02	3.608897674E+02	5.040000000E-03	0.000000000E+00	-1.000000000E+00
	-2	-1	0	0	0	501	-0.000000000E+00	-0.000000000E+00	-1.461400120E+03	1.461400120E+03	2.550000000E-03	0.000000000E+00	1.000000000E+00
	-24	1	1	2	0	0	-3.148108911E+02	-5.373814721E+02	-8.865718392E+01	6.341267762E+02	7.982435975E+01	0.000000000E+00	-1.000000000E+00
	9000005	1	1	2	0	0	3.148108911E+02	5.373814721E+02	-1.011853168E+03	1.188163111E+03	1.000000000E-05	0.000000000E+00	0.000000000E+00

</event>
<event>
	4	1	3.267126300E-02	1.478491000E+03	7.818608000E-03	8.898884000E-02
	1	-1	0	0	501	0	0.000000000E+00	0.000000000E+00	1.875004372E+03	1.875004372E+03	5.040000000E-03	0.000000000E+00	-1.000000000E+00
	-2	-1	0	0	0	501	-0.000000000E+00	-0.000000000E+00	-2.914572751E+02	2.914572751E+02	2.550000000E-03	0.000000000E+00	1.000000000E+00
	-24	1	1	2	0	0	-3.046661030E+02	-5.945276556E+02	3.376684688E+02	7.527791780E+02	7.982435975E+01	0.000000000E+00	1.000000000E+00
	9000005	1	1	2	0	0	3.046661030E+02	5.945276556E+02	1.245878628E+03	1.413682469E+03	1.000000000E-05	0.000000000E+00	0.000000000E+00

</event>
<event>
	6	1	3.267126300E-02	2.472699000E+03	7.818608000E-03	8.412777000E-02
	-1	-1	0	0	0	501	-0.000000000E+00	0.000000000E+00	1.489768960E+03	1.489768960E+03	2.550000000E-03	0.000000000E+00	1.000000000E+00
	2	-1	0	0	501	0	0.000000000E+00	-0.000000000E+00	-1.026037950E+03	1.026037950E+03	5.040000000E-03	0.000000000E+00	-1.000000000E+00
	24	2	1	2	0	0	-3.805709090E+02	-1.174984909E+03	2.425262048E+02	1.261073744E+03	7.787346637E+01	0.000000000E+00	0.000000000E+00
	-11	1	3	3	0	0	-3.327351341E+02	-1.036009651E+03	2.389210967E+02	1.114052044E+03	5.110000000E-04	0.000000000E+00	1.000000000E+00
	12	1	3	3	0	0	-4.783577494E+01	-1.389752580E+02	3.605108114E+00	1.470217008E+02	0.000000000E+00	0.000000000E+00	-1.000000000E+00
	9000005	1	1	2	0	0	3.805709090E+02	1.174984909E+03	2.212048048E+02	1.254733166E+03	1.000000000E-05	0.000000000E+00	0.000000000E+00

</event>
<event>
	4	1	3.267126300E-02	1.494988000E+03	7.818608000E-03	8.887793000E-02
	1	-1	0	0	501	0	0.000000000E+00	0.000000000E+00	1.105567913E+03	1.105567913E+03	5.040000000E-03	0.000000000E+00	-1.000000000E+00
	-2	-1	0	0	0	501	-0.000000000E+00	-0.000000000E+00	-5.053938062E+02	5.053938062E+02	2.550000000E-03	0.000000000E+00	1.000000000E+00
	-24	1	1	2	0	0	-6.638558501E+02	-3.389033394E+02	3.035129921E+02	8.087348935E+02	7.982435975E+01	0.000000000E+00	1.000000000E+00
	9000005	1	1	2	0	0	6.638558501E+02	3.389033394E+02	2.966611149E+02	8.022268260E+02	1.000000000E-05	0.000000000E+00	0.000000000E+00

</event>
<event>
	4	1	3.267126300E-02	1.262229000E+03	7.818608000E-03	9.060066000E-02
	-2	-1	0	0	0	501	-0.000000000E+00	0.000000000E+00	5.127127906E+02	5.127127906E+02	5.040000000E-03	0.000000000E+00	1.000000000E+00
	1	-1	0	0	501	0	0.000000000E+00	-0.000000000E+00	-7.768591854E+02	7.768591854E+02	2.550000000E-03	0.000000000E+00	-1.000000000E+00
	-24	1	1	2	0	0	-5.564263249E+02	2.286969699E+02	-3.187949508E+02	6.855032517E+02	7.982435975E+01	0.000000000E+00	-1.000000000E+00
	9000005	1	1	2	0	0	5.564263249E+02	-2.286969699E+02	5.464855596E+01	6.040687243E+02	1.000000000E-05	0.000000000E+00	0.000000000E+00

</event>
<event>
	4	1	3.267126300E-02	3.213245000E+03	7.818608000E-03	8.185328000E-02
	-4	-1	0	0	0	501	-0.000000000E+00	0.000000000E+00	7.983849894E+02	7.983859995E+02	1.010000000E-01	0.000000000E+00	1.000000000E+00
	3	-1	0	0	501	0	0.000000000E+00	-0.000000000E+00	-3.233068195E+03	3.233068197E+03	1.270000000E+00	0.000000000E+00	-1.000000000E+00
	-24	1	1	2	0	0	-1.383566599E+03	5.962908417E+02	-1.914648838E+03	2.437636438E+03	7.982435975E+01	0.000000000E+00	1.000000000E+00
	9000005	1	1	2	0	0	1.383566599E+03	-5.962908417E+02	-5.200343679E+02	1.593817758E+03	1.000000000E-05	0.000000000E+00	0.000000000E+00

</event>
<event>
	4	1	3.267126300E-02	1.324731000E+03	7.818608000E-03	9.010180000E-02
	3	-1	0	0	501	0	0.000000000E+00	0.000000000E+00	6.128531356E+02	6.128531439E+02	1.010000000E-01	0.000000000E+00	-1.000000000E+00
	-4	-1	0	0	0	501	-0.000000000E+00	-0.000000000E+00	-7.158771132E+02	7.158782397E+02	1.270000000E+00	0.000000000E+00	1.000000000E+00
	-24	1	1	2	0	0	2.016151752E+02	-6.194033580E+02	5.463480291E+01	6.585332861E+02	7.982435975E+01	0.000000000E+00	-1.000000000E+00
	9000005	1	1	2	0	0	-2.016151752E+02	6.194033580E+02	-1.576587805E+02	6.701980975E+02	1.000000000E-05	0.000000000E+00	0.000000000E+00

</event>
<event>
	4	1	3.267126300E-02	1.323349000E+03	7.818608000E-03	9.011251000E-02
	-2	-1	0	0	0	501	-0.000000000E+00	0.000000000E+00	6.290252996E+02	6.290252996E+02	5.040000000E-03	0.000000000E+00	1.000000000E+00
	1	-1	0	0	501	0	0.000000000E+00	-0.000000000E+00	-6.960186374E+02	6.960186374E+02	2.550000000E-03	0.000000000E+00	-1.000000000E+00
	-24	1	1	2	0	0	5.721845643E+02	-3.272666404E+02	-2.200480316E+01	6.643453690E+02	7.982435975E+01	0.000000000E+00	-1.000000000E+00
	9000005	1	1	2	0	0	-5.721845643E+02	3.272666404E+02	-4.498853461E+01	6.606985680E+02	1.000000000E-05	0.000000000E+00	0.000000000E+00

</event>
<event>
	4	1	3.267126300E-02	2.981762000E+03	7.818608000E-03	8.248958000E-02
	-2	-1	0	0	0	501	-0.000000000E+00	0.000000000E+00	1.450555092E+03	1.450555092E+03	5.040000000E-03	0.000000000E+00	1.000000000E+00
	1	-1	0	0	501	0	0.000000000E+00	-0.000000000E+00	-1.532327855E+03	1.532327855E+03	2.550000000E-03	0.000000000E+00	-1.000000000E+00
	-24	1	1	2	0	0	1.132654128E+03	8.103289571E+02	-5.702675004E+02	1.507022012E+03	7.982435975E+01	0.000000000E+00	-1.000000000E+00
	9000005	1	1	2	0	0	-1.132654128E+03	-8.103289571E+02	4.884947369E+02	1.475860936E+03	1.000000000E-05	0.000000000E+00	0.000000000E+00

</event>
<event>
	4	1	3.267126300E-02	2.277230000E+03	7.818608000E-03	8.486953000E-02
	-2	-1	0	0	0	501	-0.000000000E+00	0.000000000E+00	1.188823042E+03	1.188823042E+03	5.040000000E-03	0.000000000E+00	1.000000000E+00
	1	-1	0	0	501	0	0.000000000E+00	-0.000000000E+00	-1.090527587E+03	1.090527587E+03	2.550000000E-03	0.000000000E+00	-1.000000000E+00
	-24	1	1	2	0	0	6.742373673E+02	-4.656526957E+02	8.385055492E+02	1.175113588E+03	7.982435975E+01	0.000000000E+00	1.000000000E+00
	9000005	1	1	2	0	0	-6.742373673E+02	4.656526957E+02	-7.402100942E+02	1.104237042E+03	1.000000000E-05	0.000000000E+00	0.000000000E+00

</event>
<event>
	4	1	3.267126300E-02	1.268433000E+03	7.818608000E-03	9.054980000E-02
	1	-1	0	0	501	0	0.000000000E+00	0.000000000E+00	2.662389322E+03	2.662389322E+03	5.040000000E-03	0.000000000E+00	-1.000000000E+00
	-2	-1	0	0	0	501	-0.000000000E+00	-0.000000000E+00	-1.510786900E+02	1.510786900E+02	2.550000000E-03	0.000000000E+00	1.000000000E+00
	-24	1	1	2	0	0	-2.008260364E+02	-5.793045970E+02	9.233235856E+02	1.111226028E+03	7.982435975E+01	0.000000000E+00	1.000000000E+00
	9000005	1	1	2	0	0	2.008260364E+02	5.793045970E+02	1.587987046E+03	1.702241984E+03	1.000000000E-05	0.000000000E+00	0.000000000E+00

</event>
<event>
	4	1	3.267126300E-02	1.563671000E+03	7.818608000E-03	8.843182000E-02
	-2	-1	0	0	0	501	-0.000000000E+00	0.000000000E+00	2.063102079E+02	2.063102079E+02	5.040000000E-03	0.000000000E+00	1.000000000E+00
	1	-1	0	0	501	0	0.000000000E+00	-0.000000000E+00	-2.962852810E+03	2.962852810E+03	2.550000000E-03	0.000000000E+00	-1.000000000E+00
	-24	1	1	2	0	0	7.475466001E+02	2.187768236E+02	-1.457581755E+03	1.654571159E+03	7.982435975E+01	0.000000000E+00	1.000000000E+00
	9000005	1	1	2	0	0	-7.475466001E+02	-2.187768236E+02	-1.298960846E+03	1.514591859E+03	1.000000000E-05	0.000000000E+00	0.000000000E+00

</event>
<event>
	4	1	3.267126300E-02	2.274347000E+03	7.818608000E-03	8.488105000E-02
	-2	-1	0	0	0	501	-0.000000000E+00	0.000000000E+00	4.428757219E+02	4.428757219E+02	5.040000000E-03	0.000000000E+00	1.000000000E+00
	1	-1	0	0	501	0	0.000000000E+00	-0.000000000E+00	-2.919923688E+03	2.919923688E+03	2.550000000E-03	0.000000000E+00	-1.000000000E+00
	-24	1	1	2	0	0	-7.062551186E+02	2.005530736E+02	-2.521356397E+03	2.627285260E+03	7.982435975E+01	0.000000000E+00	-1.000000000E+00
	9000005	1	1	2	0	0	7.062551186E+02	-2.005530736E+02	4.430843089E+01	7.355141501E+02	1.000000000E-05	0.000000000E+00	0.000000000E+00

</event>
<event>
	4	1	3.267126300E-02	2.223144000E+03	7.818608000E-03	8.508857000E-02
	1	-1	0	0	501	0	0.000000000E+00	0.000000000E+00	9.532777230E+02	9.532777230E+02	5.040000000E-03	0.000000000E+00	-1.000000000E+00
	-2	-1	0	0	0	501	-0.000000000E+00	-0.000000000E+00	-1.296150975E+03	1.296150975E+03	2.550000000E-03	0.000000000E+00	1.000000000E+00
	-24	1	1	2	0	0	6.554350590E+02	-2.703263058E+02	-1.036003909E+03	1.257913930E+03	7.982435975E+01	0.000000000E+00	1.000000000E+00
	9000005	1	1	2	0	0	-6.554350590E+02	2.703263058E+02	6.931306565E+02	9.915147680E+02	1.000000000E-05	0.000000000E+00	0.000000000E+00

</event>
<event>
	4	1	3.267126300E-02	1.445446000E+03	7.818608000E-03	8.921564000E-02
	-2	-1	0	0	0	501	-0.000000000E+00	0.000000000E+00	5.795165813E+02	5.795165813E+02	5.040000000E-03	0.000000000E+00	1.000000000E+00
	1	-1	0	0	501	0	0.000000000E+00	-0.000000000E+00	-9.013175589E+02	9.013175589E+02	2.550000000E-03	0.000000000E+00	-1.000000000E+00
	-24	1	1	2	0	0	5.636787351E+02	-4.362919852E+02	-2.691468565E+02	7.660916208E+02	7.982435975E+01	0.000000000E+00	-1.000000000E+00
	9000005	1	1	2	0	0	-5.636787351E+02	4.362919852E+02	-5.265412108E+01	7.147425195E+02	1.000000000E-05	0.000000000E+00	0.000000000E+00

</event>
<event>
	4	1	3.267126300E-02	1.386881000E+03	7.818608000E-03	8.963370000E-02
	-2	-1	0	0	0	501	-0.000000000E+00	0.000000000E+00	1.037001719E+03	1.037001719E+03	5.040000000E-03	0.000000000E+00	1.000000000E+00
	1	-1	0	0	501	0	0.000000000E+00	-0.000000000E+00	-4.637022174E+02	4.637022175E+02	2.550000000E-03	0.000000000E+00	-1.000000000E+00
	-24	1	1	2	0	0	1.352302906E+01	-6.765010935E+02	4.400243465E+02	8.110671709E+02	7.982435975E+01	0.000000000E+00	1.000000000E+00
	9000005	1	1	2	0	0	-1.352302906E+01	6.765010935E+02	1.332751554E+02	6.896367659E+02	1.000000000E-05	0.000000000E+00	0.000000000E+00

</event>
<event>
	4	1	3.267126300E-02	1.660854000E+03	7.818608000E-03	8.784011000E-02
	-2	-1	0	0	0	501	-0.000000000E+00	0.000000000E+00	4.147422051E+02	4.147422051E+02	5.040000000E-03	0.000000000E+00	1.000000000E+00
	1	-1	0	0	501	0	0.000000000E+00	-0.000000000E+00	-1.662741765E+03	1.662741765E+03	2.550000000E-03	0.000000000E+00	-1.000000000E+00
	-24	1	1	2	0	0	6.144637673E+02	-5.548545564E+02	-6.649491747E+02	1.064874938E+03	7.982435975E+01	0.000000000E+00	-1.000000000E+00
	9000005	1	1	2	0	0	-6.144637673E+02	5.548545564E+02	-5.830503848E+02	1.012609032E+03	1.000000000E-05	0.000000000E+00	0.000000000E+00

</event>
<event>
	4	1	3.267126300E-02	2.186958000E+03	7.818608000E-03	8.523876000E-02
	-2	-1	0	0	0	501	-0.000000000E+00	0.000000000E+00	5.101180969E+02	5.101180969E+02	5.040000000E-03	0.000000000E+00	1.000000000E+00
	1	-1	0	0	501	0	0.000000000E+00	-0.000000000E+00	-2.343959021E+03	2.343959021E+03	2.550000000E-03	0.000000000E+00	-1.000000000E+00
	-24	1	1	2	0	0	7.978478415E+02	-6.626045083E+02	-4.719271770E+02	1.142231632E+03	7.982435975E+01	0.000000000E+00	1.000000000E+00
	9000005	1	1	2	0	0	-7.978478415E+02	6.626045083E+02	-1.361913747E+03	1.711845485E+03	1.000000000E-05	0.000000000E+00	0.000000000E+00

</event>
<event>
	4	1	3.267126300E-02	1.344631000E+03	7.818608000E-03	8.994903000E-02
	1	-1	0	0	501	0	0.000000000E+00	0.000000000E+00	1.291575380E+03	1.291575380E+03	5.040000000E-03	0.000000000E+00	-1.000000000E+00
	-2	-1	0	0	0	501	-0.000000000E+00	-0.000000000E+00	-3.499662935E+02	3.499662935E+02	2.550000000E-03	0.000000000E+00	1.000000000E+00
	-24	1	1	2	0	0	-6.306078915E+02	-2.224233720E+02	4.222910633E+02	7.948837272E+02	7.982435975E+01	0.000000000E+00	-1.000000000E+00
	9000005	1	1	2	0	0	6.306078915E+02	2.224233720E+02	5.193180235E+02	8.466579467E+02	1.000000000E-05	0.000000000E+00	0.000000000E+00

</event>
<event>
	4	1	3.267126300E-02	4.253850000E+03	7.818608000E-03	7.955207000E-02
	-2	-1	0	0	0	501	-0.000000000E+00	0.000000000E+00	5.030257911E+03	5.030257911E+03	5.040000000E-03	0.000000000E+00	1.000000000E+00
	1	-1	0	0	501	0	0.000000000E+00	-0.000000000E+00	-8.993195510E+02	8.993195510E+02	2.550000000E-03	0.000000000E+00	-1.000000000E+00
	-24	1	1	2	0	0	-2.100206616E+03	1.930401940E+02	2.441502292E+03	3.227295728E+03	7.982435975E+01	0.000000000E+00	-1.000000000E+00
	9000005	1	1	2	0	0	2.100206616E+03	-1.930401940E+02	1.689436068E+03	2.702281735E+03	1.000000000E-05	0.000000000E+00	0.000000000E+00

</event>
<event>
	4	1	3.267126300E-02	1.796959000E+03	7.818608000E-03	8.707919000E-02
	1	-1	0	0	501	0	0.000000000E+00	0.000000000E+00	2.110715421E+03	2.110715421E+03	5.040000000E-03	0.000000000E+00	-1.000000000E+00
	-2	-1	0	0	0	501	-0.000000000E+00	-0.000000000E+00	-3.824603529E+02	3.824603529E+02	2.550000000E-03	0.000000000E+00	1.000000000E+00
	-24	1	1	2	0	0	-8.906958142E+02	4.864092361E+01	7.388444723E+02	1.161020265E+03	7.982435975E+01	0.000000000E+00	-1.000000000E+00
	9000005	1	1	2	0	0	8.906958142E+02	-4.864092361E+01	9.894105955E+02	1.332155509E+03	1.000000000E-05	0.000000000E+00	0.000000000E+00

</event>
<event>
	4	1	3.267126300E-02	1.268054000E+03	7.818608000E-03	9.055290000E-02
	1	-1	0	0	501	0	0.000000000E+00	0.000000000E+00	5.005960739E+02	5.005960739E+02	5.040000000E-03	0.000000000E+00	-1.000000000E+00
	-2	-1	0	0	0	501	-0.000000000E+00	-0.000000000E+00	-8.030228866E+02	8.030228866E+02	2.550000000E-03	0.000000000E+00	1.000000000E+00
	-24	1	1	2	0	0	-2.594259851E+02	-5.661545486E+02	-2.595254577E+02	6.793807521E+02	7.982435975E+01	0.000000000E+00	1.000000000E+00
	9000005	1	1	2	0	0	2.594259851E+02	5.661545486E+02	-4.290135503E+01	6.242382085E+02	1.000000000E-05	0.000000000E+00	0.000000000E+00

</event>
<event>
	6	1	3.267126300E-02	1.357403000E+03	7.818608000E-03	8.985243000E-02
	2	-1	0	0	501	0	0.000000000E+00	0.000000000E+00	1.016976873E+03	1.016976873E+03	2.550000000E-03	0.000000000E+00	-1.000000000E+00
	-1	-1	0	0	0	501	-0.000000000E+00	-0.000000000E+00	-4.529462664E+02	4.529462664E+02	5.040000000E-03	0.000000000E+00	1.000000000E+00
	24	2	1	2	0	0	-6.748203133E+02	6.981864238E+00	2.384900189E+02	7.206515761E+02	8.384511566E+01	0.000000000E+00	0.000000000E+00
	-11	1	3	3	0	0	-6.345055926E+02	6.799519115E-01	2.019259309E+02	6.658617657E+02	5.110000000E-04	0.000000000E+00	1.000000000E+00
	12	1	3	3	0	0	-4.031472065E+01	6.301912327E+00	3.656408797E+01	5.478981045E+01	0.000000000E+00	0.000000000E+00	-1.000000000E+00
	9000005	1	1	2	0	0	6.748203133E+02	-6.981864238E+00	3.255405881E+02	7.492715637E+02	1.000000000E-05	0.000000000E+00	0.000000000E+00

</event>
<event>
	6	1	3.267126300E-02	3.436071000E+03	7.818608000E-03	8.129110000E-02
	2	-1	0	0	501	0	0.000000000E+00	0.000000000E+00	1.072035747E+03	1.072035747E+03	2.550000000E-03	0.000000000E+00	-1.000000000E+00
	-1	-1	0	0	0	501	-0.000000000E+00	-0.000000000E+00	-2.753309390E+03	2.753309390E+03	5.040000000E-03	0.000000000E+00	1.000000000E+00
	24	2	1	2	0	0	-6.295633471E+02	-4.702263121E+02	-2.540791843E+03	2.660770396E+03	8.132107082E+01	0.000000000E+00	0.000000000E+00
	-11	1	3	3	0	0	-6.000073534E+02	-4.426708074E+02	-2.458658622E+03	2.569235000E+03	5.110000000E-04	0.000000000E+00	1.000000000E+00
	12	1	3	3	0	0	-2.955599367E+01	-2.755550465E+01	-8.213322146E+01	9.153539570E+01	0.000000000E+00	0.000000000E+00	-1.000000000E+00
	9000005	1	1	2	0	0	6.295633471E+02	4.702263121E+02	8.595182002E+02	1.164574742E+03	1.000000000E-05	0.000000000E+00	0.000000000E+00

</event>
<event>
	4	1	3.267126300E-02	2.753720000E+03	7.818608000E-03	8.317782000E-02
	1	-1	0	0	501	0	0.000000000E+00	0.000000000E+00	2.618497729E+03	2.618497729E+03	5.040000000E-03	0.000000000E+00	-1.000000000E+00
	-2	-1	0	0	0	501	-0.000000000E+00	-0.000000000E+00	-7.239815169E+02	7.239815169E+02	2.550000000E-03	0.000000000E+00	1.000000000E+00
	-24	1	1	2	0	0	-1.319411585E+03	1.061705841E+01	4.754493937E+02	1.404771763E+03	7.982435975E+01	0.000000000E+00	1.000000000E+00
	9000005	1	1	2	0	0	1.319411585E+03	-1.061705841E+01	1.419066818E+03	1.937707482E+03	1.000000000E-05	0.000000000E+00	0.000000000E+00

</event>
<event>
	4	1	3.267126300E-02	1.712609000E+03	7.818608000E-03	8.754206000E-02
	1	-1	0	0	501	0	0.000000000E+00	0.000000000E+00	9.671585585E+02	9.671585585E+02	5.040000000E-03	0.000000000E+00	-1.000000000E+00
	-2	-1	0	0	0	501	-0.000000000E+00	-0.000000000E+00	-7.581561673E+02	7.581561673E+02	2.550000000E-03	0.000000000E+00	1.000000000E+00
	-24	1	1	2	0	0	7.503291787E+02	-7.024204645E+01	5.103903678E+02	9.136728504E+02	7.982435975E+01	0.000000000E+00	1.000000000E+00
	9000005	1	1	2	0	0	-7.503291787E+02	7.024204645E+01	-3.013879766E+02	8.116418755E+02	1.000000000E-05	0.000000000E+00	0.000000000E+00

</event>
<event>
	4	1	3.267126300E-02	1.574585000E+03	7.818608000E-03	8.836315000E-02
	-2	-1	0	0	0	501	-0.000000000E+00	0.000000000E+00	3.907327762E+02	3.907327762E+02	5.040000000E-03	0.000000000E+00	1.000000000E+00
	1	-1	0	0	501	0	0.000000000E+00	-0.000000000E+00	-1.586326137E+03	1.586326137E+03	2.550000000E-03	0.000000000E+00	-1.000000000E+00
	-24	1	1	2	0	0	2.163368880E+02	-6.364325293E+02	-8.961300250E+01	6.828253305E+02	7.982435975E+01	0.000000000E+00	1.000000000E+00
	9000005	1	1	2	0	0	-2.163368880E+02	6.364325293E+02	-1.105980358E+03	1.294233583E+03	1.000000000E-05	0.000000000E+00	0.000000000E+00

</event>
<event>
	4	1	3.267126300E-02	1.359523000E+03	7.818608000E-03	8.983651000E-02
	1	-1	0	0	501	0	0.000000000E+00	0.000000000E+00	2.201122205E+03	2.201122205E+03	5.040000000E-03	0.000000000E+00	-1.000000000E+00
	-2	-1	0	0	0	501	-0.000000000E+00	-0.000000000E+00	-2.099272557E+02	2.099272557E+02	2.550000000E-03	0.000000000E+00	1.000000000E+00
	-24	1	1	2	0	0	-7.617090387E+00	-6.583352441E+02	1.281848252E+03	1.443249869E+03	7.982435975E+01	0.000000000E+00	-1.000000000E+00
	9000005	1	1	2	0	0	7.617090387E+00	6.583352441E+02	7.093466975E+02	9.677995924E+02	1.000000000E-05	0.000000000E+00	0.000000000E+00

</event>
<event>
	4	1	3.267126300E-02	1.818001000E+03	7.818608000E-03	8.696785000E-02
	-2	-1	0	0	0	501	-0.000000000E+00	0.000000000E+00	5.917368580E+02	5.917368580E+02	5.040000000E-03	0.000000000E+00	1.000000000E+00
	1	-1	0	0	501	0	0.000000000E+00	-0.000000000E+00	-1.396366708E+03	1.396366708E+03	2.550000000E-03	0.000000000E+00	-1.000000000E+00
	-24	1	1	2	0	0	8.253790208E+02	-8.510211345E+01	-8.043053359E+02	1.158348782E+03	7.982435975E+01	0.000000000E+00	-1.000000000E+00
	9000005	1	1	2	0	0	-8.253790208E+02	8.510211345E+01	-3.245143885E-01	8.297547849E+02	1.000000000E-05	0.000000000E+00	0.000000000E+00

</event>
<event>
	4	1	3.267126300E-02	1.723653000E+03	7.818608000E-03	8.747988000E-02
	-4	-1	0	0	0	501	-0.000000000E+00	0.000000000E+00	1.473189580E+03	1.473190128E+03	1.010000000E-01	0.000000000E+00	1.000000000E+00
	3	-1	0	0	501	0	0.000000000E+00	-0.000000000E+00	-5.041742954E+02	5.041743055E+02	1.270000000E+00	0.000000000E+00	-1.000000000E+00
	-24	1	1	2	0	0	-5.112766924E+02	6.912303571E+02	4.638087484E+02	9.801498591E+02	7.982435975E+01	0.000000000E+00	1.000000000E+00
	9000005	1	1	2	0	0	5.112766924E+02	-6.912303571E+02	5.052065366E+02	9.972145743E+02	1.000000000E-05	0.000000000E+00	0.000000000E+00

</event>
<event>
	4	1	3.267126300E-02	2.169611000E+03	7.818608000E-03	8.531184000E-02
	1	-1	0	0	501	0	0.000000000E+00	0.000000000E+00	2.773411625E+03	2.773411625E+03	5.040000000E-03	0.000000000E+00	-1.000000000E+00
	-2	-1	0	0	0	501	-0.000000000E+00	-0.000000000E+00	-4.243161455E+02	4.243161455E+02	2.550000000E-03	0.000000000E+00	1.000000000E+00
	-24	1	1	2	0	0	7.365599032E+02	-6.516506995E+02	1.845817793E+03	2.092984563E+03	7.982435975E+01	0.000000000E+00	-1.000000000E+00
	9000005	1	1	2	0	0	-7.365599032E+02	6.516506995E+02	5.032776858E+02	1.104743207E+03	1.000000000E-05	0.000000000E+00	0.000000000E+00

</event>
<event>
	4	1	3.267126300E-02	1.494170000E+03	7.818608000E-03	8.888339000E-02
	-4	-1	0	0	0	501	-0.000000000E+00	0.000000000E+00	4.941184875E+02	4.941201196E+02	5.040000000E-03	0.000000000E+00	1.000000000E+00
	1	-1	0	0	501	0	0.000000000E+00	-0.000000000E+00	-1.129556407E+03	1.129556407E+03	1.270000000E+00	0.000000000E+00	-1.000000000E+00
	-24	1	1	2	0	0	3.189368063E+02	-6.365315928E+02	-8.039494342E+01	7.209219309E+02	7.982435975E+01	0.000000000E+00	1.000000000E+00
	9000005	1	1	2	0	0	-3.189368063E+02	6.365315928E+02	-5.550429766E+02	9.027545962E+02	1.000000000E-05	0.000000000E+00	0.000000000E+00

</event>
<event>
	4	1	3.267126300E-02	1.416008000E+03	7.818608000E-03	8.942312000E-02
	1	-1	0	0	501	0	0.000000000E+00	0.000000000E+00	1.997901585E+03	1.997901585E+03	5.040000000E-03	0.000000000E+00	-1.000000000E+00
	-2	-1	0	0	0	501	-0.000000000E+00	-0.000000000E+00	-2.508982017E+02	2.508982017E+02	2.550000000E-03	0.000000000E+00	1.000000000E+00
	-24	1	1	2	0	0	2.803007508E+02	5.489818626E+02	3.304161839E+02	7.039150370E+02	7.982435975E+01	0.000000000E+00	1.000000000E+00
	9000005	1	1	2	0	0	-2.803007508E+02	-5.489818626E+02	1.416587199E+03	1.544884749E+03	1.000000000E-05	0.000000000E+00	0.000000000E+00

</event>
<event>
	4	1	3.267126300E-02	2.162807000E+03	7.818608000E-03	8.534070000E-02
	1	-1	0	0	501	0	0.000000000E+00	0.000000000E+00	1.201666673E+03	1.201666673E+03	5.040000000E-03	0.000000000E+00	-1.000000000E+00
	-2	-1	0	0	0	501	-0.000000000E+00	-0.000000000E+00	-9.731762411E+02	9.731762411E+02	2.550000000E-03	0.000000000E+00	1.000000000E+00
	-24	1	1	2	0	0	-8.212749497E+02	-4.730234626E+02	6.349746743E+02	1.143594554E+03	7.982435975E+01	0.000000000E+00	-1.000000000E+00
	9000005	1	1	2	0	0	8.212749497E+02	4.730234626E+02	-4.064842428E+02	1.031248359E+03	1.000000000E-05	0.000000000E+00	0.000000000E+00

</event>
<event>
	4	1	3.267126300E-02	2.716591000E+03	7.818608000E-03	8.329642000E-02
	1	-1	0	0	501	0	0.000000000E+00	0.000000000E+00	8.418288741E+02	8.418288741E+02	5.040000000E-03	0.000000000E+00	-1.000000000E+00
	-2	-1	0	0	0	501	-0.000000000E+00	-0.000000000E+00	-2.191617125E+03	2.191617125E+03	2.550000000E-03	0.000000000E+00	1.000000000E+00
	-24	1	1	2	0	0	-9.384098517E+02	-4.566370820E+02	-1.644220765E+03	1.949093206E+03	7.982435975E+01	0.000000000E+00	1.000000000E+00
	9000005	1	1	2	0	0	9.384098517E+02	4.566370820E+02	2.944325139E+02	1.084352793E+03	1.000000000E-05	0.000000000E+00	0.000000000E+00

</event>
<event>
	4	1	3.267126300E-02	2.257527000E+03	7.818608000E-03	8.494858000E-02
	1	-1	0	0	501	0	0.000000000E+00	0.000000000E+00	1.366510222E+03	1.366510222E+03	5.040000000E-03	0.000000000E+00	-1.000000000E+00
	-2	-1	0	0	0	501	-0.000000000E+00	-0.000000000E+00	-9.323805674E+02	9.323805674E+02	2.550000000E-03	0.000000000E+00	1.000000000E+00
	-24	1	1	2	0	0	-1.643173822E+01	1.045888529E+03	6.454808894E+02	1.231734680E+03	7.982435975E+01	0.000000000E+00	-1.000000000E+00
	9000005	1	1	2	0	0	1.643173822E+01	-1.045888529E+03	-2.113512348E+02	1.067156109E+03	1.000000000E-05	0.000000000E+00	0.000000000E+00

</event>
<event>
	4	1	3.267126300E-02	1.430921000E+03	7.818608000E-03	8.931735000E-02
	-2	-1	0	0	0	501	-0.000000000E+00	0.000000000E+00	2.335713111E+02	2.335713111E+02	5.040000000E-03	0.000000000E+00	1.000000000E+00
	1	-1	0	0	501	0	0.000000000E+00	-0.000000000E+00	-2.191553580E+03	2.191553580E+03	2.550000000E-03	0.000000000E+00	-1.000000000E+00
	-24	1	1	2	0	0	-7.117068658E+02	-1.479460350E+01	-9.070537861E+02	1.155795848E+03	7.982435975E+01	0.000000000E+00	1.000000000E+00
	9000005	1	1	2	0	0	7.117068658E+02	1.479460350E+01	-1.050928482E+03	1.269329043E+03	1.000000000E-05	0.000000000E+00	0.000000000E+00

</event>
<event>
	4	1	3.267126300E-02	2.300029000E+03	7.818608000E-03	8.477910000E-02
	-2	-1	0	0	0	501	-0.000000000E+00	0.000000000E+00	1.574529437E+03	1.574529437E+03	5.040000000E-03	0.000000000E+00	1.000000000E+00
	1	-1	0	0	501	0	0.000000000E+00	-0.000000000E+00	-8.399546062E+02	8.399546062E+02	2.550000000E-03	0.000000000E+00	-1.000000000E+00
	-24	1	1	2	0	0	-5.774158707E+02	-3.036314794E+02	1.360156867E+03	1.510628940E+03	7.982435975E+01	0.000000000E+00	1.000000000E+00
	9000005	1	1	2	0	0	5.774158707E+02	3.036314794E+02	-6.255820364E+02	9.038551031E+02	1.000000000E-05	0.000000000E+00	0.000000000E+00

</event>
<event>
	4	1	3.267126300E-02	2.309061000E+03	7.818608000E-03	8.474357000E-02
	1	-1	0	0	501	0	0.000000000E+00	0.000000000E+00	2.087640735E+03	2.087640735E+03	5.040000000E-03	0.000000000E+00	-1.000000000E+00
	-2	-1	0	0	0	501	-0.000000000E+00	-0.000000000E+00	-6.384914167E+02	6.384914167E+02	2.550000000E-03	0.000000000E+00	1.000000000E+00
	-24	1	1	2	0	0	8.065264240E+02	-5.064353815E+02	-4.223264288E+01	9.566175792E+02	7.982435975E+01	0.000000000E+00	1.000000000E+00
	9000005	1	1	2	0	0	-8.065264240E+02	5.064353815E+02	1.491381962E+03	1.769514573E+03	1.000000000E-05	0.000000000E+00	0.000000000E+00

</event>
<event>
	4	1	3.267126300E-02	2.615687000E+03	7.818608000E-03	8.362892000E-02
	-2	-1	0	0	0	501	-0.000000000E+00	0.000000000E+00	1.985371372E+03	1.985371372E+03	5.040000000E-03	0.000000000E+00	1.000000000E+00
	1	-1	0	0	501	0	0.000000000E+00	-0.000000000E+00	-8.615289971E+02	8.615289971E+02	2.550000000E-03	0.000000000E+00	-1.000000000E+00
	-24	1	1	2	0	0	6.925737116E+02	3.501226966E+02	-5.816785690E+02	9.731218499E+02	7.982435975E+01	0.000000000E+00	-1.000000000E+00
	9000005	1	1	2	0	0	-6.925737116E+02	-3.501226966E+02	1.705520944E+03	1.873778519E+03	1.000000000E-05	0.000000000E+00	0.000000000E+00

</event>
<event>
	4	1	3.267126300E-02	1.635200000E+03	7.818608000E-03	8.799211000E-02
	-2	-1	0	0	0	501	-0.000000000E+00	0.000000000E+00	7.328345150E+02	7.328345150E+02	5.040000000E-03	0.000000000E+00	1.000000000E+00
	1	-1	0	0	501	0	0.000000000E+00	-0.000000000E+00	-9.121696783E+02	9.121696783E+02	2.550000000E-03	0.000000000E+00	-1.000000000E+00
	-24	1	1	2	0	0	3.239765108E+02	-7.225037798E+02	1.070339733E+02	8.029948264E+02	7.982435975E+01	0.000000000E+00	1.000000000E+00
	9000005	1	1	2	0	0	-3.239765108E+02	7.225037798E+02	-2.863691366E+02	8.420093668E+02	1.000000000E-05	0.000000000E+00	0.000000000E+00

</event>
<event>
	4	1	3.267126300E-02	1.514874000E+03	7.818608000E-03	8.874622000E-02
	1	-1	0	0	501	0	0.000000000E+00	0.000000000E+00	3.546352591E+03	3.546352591E+03	5.040000000E-03	0.000000000E+00	-1.000000000E+00
	-2	-1	0	0	0	501	-0.000000000E+00	-0.000000000E+00	-1.617748464E+02	1.617748465E+02	2.550000000E-03	0.000000000E+00	1.000000000E+00
	-24	1	1	2	0	0	-5.854916986E+02	2.675617927E+02	2.664227766E+03	2.742056046E+03	7.982435975E+01	0.000000000E+00	-1.000000000E+00
	9000005	1	1	2	0	0	5.854916986E+02	-2.675617927E+02	7.203499793E+02	9.660713921E+02	1.000000000E-05	0.000000000E+00	0.000000000E+00

</event>
<event>
	4	1	3.267126300E-02	2.082242000E+03	7.818608000E-03	8.569106000E-02
	1	-1	0	0	501	0	0.000000000E+00	0.000000000E+00	7.997097032E+02	7.997097033E+02	5.040000000E-03	0.000000000E+00	-1.000000000E+00
	-2	-1	0	0	0	501	-0.000000000E+00	-0.000000000E+00	-1.355408607E+03	1.355408607E+03	2.550000000E-03	0.000000000E+00	1.000000000E+00
	-24	1	1	2	0	0	8.056490631E+02	-4.630721370E+01	-9.565847944E+02	1.254049907E+03	7.982435975E+01	0.000000000E+00	1.000000000E+00
	9000005	1	1	2	0	0	-8.056490631E+02	4.630721370E+01	4.008858906E+02	9.010684037E+02	1.000000000E-05	0.000000000E+00	0.000000000E+00

</event>
<event>
	4	1	3.267126300E-02	1.577590000E+03	7.818608000E-03	8.834435000E-02
	-2	-1	0	0	0	501	-0.000000000E+00	0.000000000E+00	2.178786597E+03	2.178786597E+03	5.040000000E-03	0.000000000E+00	1.000000000E+00
	1	-1	0	0	501	0	0.000000000E+00	-0.000000000E+00	-2.855707208E+02	2.855707208E+02	2.550000000E-03	0.000000000E+00	-1.000000000E+00
	-24	1	1	2	0	0	-3.747788285E+02	6.090821506E+02	4.366820622E+02	8.417264332E+02	7.982435975E+01	0.000000000E+00	1.000000000E+00
	9000005	1	1	2	0	0	3.747788285E+02	-6.090821506E+02	1.456533814E+03	1.622630884E+03	1.000000000E-05	0.000000000E+00	0.000000000E+00

</event>
<event>
	4	1	3.267126300E-02	1.926314000E+03	7.818608000E-03	8.641868000E-02
	-2	-1	0	0	0	501	-0.000000000E+00	0.000000000E+00	7.928753630E+02	7.928753630E+02	5.040000000E-03	0.000000000E+00	1.000000000E+00
	1	-1	0	0	501	0	0.000000000E+00	-0.000000000E+00	-1.170009721E+03	1.170009721E+03	2.550000000E-03	0.000000000E+00	-1.000000000E+00
	-24	1	1	2	0	0	-5.888306949E+02	-7.504991734E+02	-6.611259486E+01	9.595381181E+02	7.982435975E+01	0.000000000E+00	1.000000000E+00
	9000005	1	1	2	0	0	5.888306949E+02	7.504991734E+02	-3.110217629E+02	1.003346966E+03	1.000000000E-05	0.000000000E+00	0.000000000E+00

</event>
<event>
	4	1	3.267126300E-02	1.749439000E+03	7.818608000E-03	8.733659000E-02
	1	-1	0	0	501	0	0.000000000E+00	0.000000000E+00	6.203545184E+02	6.203545184E+02	5.040000000E-03	0.000000000E+00	-1.000000000E+00
	-2	-1	0	0	0	501	-0.000000000E+00	-0.000000000E+00	-1.233382869E+03	1.233382869E+03	2.550000000E-03	0.000000000E+00	1.000000000E+00
	-24	1	1	2	0	0	-3.834752553E+02	-6.713392201E+02	-7.365295370E+02	1.070792841E+03	7.982435975E+01	0.000000000E+00	1.000000000E+00
	9000005	1	1	2	0	0	3.834752553E+02	6.713392201E+02	1.235011868E+02	7.829445466E+02	1.000000000E-05	0.000000000E+00	0.000000000E+00

</event>
<event>
	4	1	3.267126300E-02	2.290699000E+03	7.818608000E-03	8.481597000E-02
	1	-1	0	0	501	0	0.000000000E+00	0.000000000E+00	5.519778239E+02	5.519778239E+02	5.040000000E-03	0.000000000E+00	-1.000000000E+00
	-2	-1	0	0	0	501	-0.000000000E+00	-0.000000000E+00	-2.376591602E+03	2.376591602E+03	2.550000000E-03	0.000000000E+00	1.000000000E+00
	-24	1	1	2	0	0	-9.423600963E+02	-3.465810260E+02	-1.614217560E+03	1.902690521E+03	7.982435975E+01	0.000000000E+00	-1.000000000E+00
	9000005	1	1	2	0	0	9.423600963E+02	3.465810260E+02	-2.103962178E+02	1.025878905E+03	1.000000000E-05	0.000000000E+00	0.000000000E+00

</event>
<event>
	4	1	3.267126300E-02	2.025305000E+03	7.818608000E-03	8.594880000E-02
	-2	-1	0	0	0	501	-0.000000000E+00	0.000000000E+00	6.151003369E+02	6.151003369E+02	5.040000000E-03	0.000000000E+00	1.000000000E+00
	1	-1	0	0	501	0	0.000000000E+00	-0.000000000E+00	-1.667150851E+03	1.667150851E+03	2.550000000E-03	0.000000000E+00	-1.000000000E+00
	-24	1	1	2	0	0	5.567348658E+02	4.870686473E+02	-1.303557706E+03	1.500941105E+03	7.982435975E+01	0.000000000E+00	-1.000000000E+00
	9000005	1	1	2	0	0	-5.567348658E+02	-4.870686473E+02	2.515071923E+02	7.813100830E+02	1.000000000E-05	0.000000000E+00	0.000000000E+00

</event>
<event>
	4	1	3.267126300E-02	1.634865000E+03	7.818608000E-03	8.799411000E-02
	1	-1	0	0	501	0	0.000000000E+00	0.000000000E+00	1.558513514E+03	1.558513514E+03	5.040000000E-03	0.000000000E+00	-1.000000000E+00
	-2	-1	0	0	0	501	-0.000000000E+00	-0.000000000E+00	-4.287391980E+02	4.287391980E+02	2.550000000E-03	0.000000000E+00	1.000000000E+00
	-24	1	1	2	0	0	-4.767191111E+02	-5.037426911E+02	1.087638915E+03	1.292419494E+03	7.982435975E+01	0.000000000E+00	1.000000000E+00
	9000005	1	1	2	0	0	4.767191111E+02	5.037426911E+02	4.213540142E+01	6.948332187E+02	1.000000000E-05	0.000000000E+00	0.000000000E+00

</event>
<event>
	6	1	3.267126300E-02	2.208758000E+03	7.818608000E-03	8.514791000E-02
	-1	-1	0	0	0	501	-0.000000000E+00	0.000000000E+00	1.595283195E+03	1.595283195E+03	2.550000000E-03	0.000000000E+00	1.000000000E+00
	2	-1	0	0	501	0	0.000000000E+00	-0.000000000E+00	-7.645372570E+02	7.645372570E+02	5.040000000E-03	0.000000000E+00	-1.000000000E+00
	24	2	1	2	0	0	6.156545785E+02	-7.445903799E+02	9.842263293E+02	1.381555854E+03	8.093031446E+01	0.000000000E+00	0.000000000E+00
	-11	1	3	3	0	0	6.141865765E+02	-7.295473135E+02	9.612623187E+02	1.354064134E+03	5.110000000E-04	0.000000000E+00	1.000000000E+00
	12	1	3	3	0	0	1.468002046E+00	-1.504306636E+01	2.296401058E+01	2.749171979E+01	0.000000000E+00	0.000000000E+00	-1.000000000E+00
	9000005	1	1	2	0	0	-6.156545785E+02	7.445903799E+02	-1.534803912E+02	9.782645983E+02	1.000000000E-05	0.000000000E+00	0.000000000E+00

</event>
<event>
	4	1	3.267126300E-02	2.343317000E+03	7.818608000E-03	8.461035000E-02
	-2	-1	0	0	0	501	-0.000000000E+00	0.000000000E+00	4.148121774E+02	4.148121774E+02	5.040000000E-03	0.000000000E+00	1.000000000E+00
	1	-1	0	0	501	0	0.000000000E+00	-0.000000000E+00	-3.309409879E+03	3.309409879E+03	2.550000000E-03	0.000000000E+00	-1.000000000E+00
	-24	1	1	2	0	0	-7.286058699E+02	-4.626410072E+02	-2.705120980E+03	2.840590548E+03	7.982435975E+01	0.000000000E+00	-1.000000000E+00
	9000005	1	1	2	0	0	7.286058699E+02	4.626410072E+02	-1.894767217E+02	8.836315087E+02	1.000000000E-05	0.000000000E+00	0.000000000E+00

</event>
<event>
	4	1	3.267126300E-02	1.549647000E+03	7.818608000E-03	8.852093000E-02
	-2	-1	0	0	0	501	-0.000000000E+00	0.000000000E+00	3.800685234E+02	3.800685234E+02	5.040000000E-03	0.000000000E+00	1.000000000E+00
	1	-1	0	0	501	0	0.000000000E+00	-0.000000000E+00	-1.579588053E+03	1.579588053E+03	2.550000000E-03	0.000000000E+00	-1.000000000E+00
	-24	1	1	2	0	0	2.238306029E+00	-7.605335442E+02	-4.281741212E+02	8.764252896E+02	7.982435975E+01	0.000000000E+00	-1.000000000E+00
	9000005	1	1	2	0	0	-2.238306029E+00	7.605335442E+02	-7.713454089E+02	1.083231287E+03	1.000000000E-05	0.000000000E+00	0.000000000E+00

</event>
<event>
	4	1	3.267126300E-02	1.844972000E+03	7.818608000E-03	8.682743000E-02
	-2	-1	0	0	0	501	-0.000000000E+00	0.000000000E+00	1.759066077E+03	1.759066077E+03	5.040000000E-03	0.000000000E+00	1.000000000E+00
	1	-1	0	0	501	0	0.000000000E+00	-0.000000000E+00	-4.837684209E+02	4.837684209E+02	2.550000000E-03	0.000000000E+00	-1.000000000E+00
	-24	1	1	2	0	0	6.110649140E+02	3.493330467E+02	-8.276828699E+01	7.132015314E+02	7.982435975E+01	0.000000000E+00	-1.000000000E+00
	9000005	1	1	2	0	0	-6.110649140E+02	-3.493330467E+02	1.358065943E+03	1.529632967E+03	1.000000000E-05	0.000000000E+00	0.000000000E+00

</event>
<event>
	4	1	3.267126300E-02	2.493561000E+03	7.818608000E-03	8.405283000E-02
	1	-1	0	0	501	0	0.000000000E+00	0.000000000E+00	1.881079500E+03	1.881079500E+03	5.040000000E-03	0.000000000E+00	-1.000000000E+00
	-2	-1	0	0	0	501	-0.000000000E+00	-0.000000000E+00	-8.263666087E+02	8.263666087E+02	2.550000000E-03	0.000000000E+00	1.000000000E+00
	-24	1	1	2	0	0	-1.803227439E+02	1.231883589E+03	4.899182216E+02	1.340315359E+03	7.982435975E+01	0.000000000E+00	1.000000000E+00
	9000005	1	1	2	0	0	1.803227439E+02	-1.231883589E+03	5.647946693E+02	1.367130750E+03	1.000000000E-05	0.000000000E+00	0.000000000E+00

</event>
<event>
	4	1	3.267126300E-02	1.874421000E+03	7.818608000E-03	8.667694000E-02
	-2	-1	0	0	0	501	-0.000000000E+00	0.000000000E+00	7.884894501E+02	7.884894501E+02	5.040000000E-03	0.000000000E+00	1.000000000E+00
	1	-1	0	0	501	0	0.000000000E+00	-0.000000000E+00	-1.113982565E+03	1.113982565E+03	2.550000000E-03	0.000000000E+00	-1.000000000E+00
	-24	1	1	2	0	0	-9.099632435E+02	-1.691117082E+02	-3.012729264E+02	9.766110684E+02	7.982435975E+01	0.000000000E+00	1.000000000E+00
	9000005	1	1	2	0	0	9.099632435E+02	1.691117082E+02	-2.422018804E+01	9.258609462E+02	1.000000000E-05	0.000000000E+00	0.000000000E+00

</event>
<event>
	4	1	3.267126300E-02	1.841849000E+03	7.818608000E-03	8.684356000E-02
	1	-1	0	0	501	0	0.000000000E+00	0.000000000E+00	8.895643766E+02	8.895643766E+02	5.040000000E-03	0.000000000E+00	-1.000000000E+00
	-2	-1	0	0	0	501	-0.000000000E+00	-0.000000000E+00	-9.533906123E+02	9.533906123E+02	2.550000000E-03	0.000000000E+00	1.000000000E+00
	-24	1	1	2	0	0	-7.730960402E+02	-4.953497955E+02	-7.524767634E+01	9.247070068E+02	7.982435975E+01	0.000000000E+00	-1.000000000E+00
	9000005	1	1	2	0	0	7.730960402E+02	4.953497955E+02	1.142144062E+01	9.182479821E+02	1.000000000E-05	0.000000000E+00	0.000000000E+00

</event>
<event>
	4	1	3.267126300E-02	1.531589000E+03	7.818608000E-03	8.863714000E-02
	1	-1	0	0	501	0	0.000000000E+00	0.000000000E+00	2.062775024E+03	2.062775024E+03	5.040000000E-03	0.000000000E+00	-1.000000000E+00
	-2	-1	0	0	0	501	-0.000000000E+00	-0.000000000E+00	-2.842973094E+02	2.842973094E+02	2.550000000E-03	0.000000000E+00	1.000000000E+00
	-24	1	1	2	0	0	-6.335291425E+02	2.307233362E+02	3.419637589E+02	7.601996929E+02	7.982435975E+01	0.000000000E+00	1.000000000E+00
	9000005	1	1	2	0	0	6.335291425E+02	-2.307233362E+02	1.436513956E+03	1.586872641E+03	1.000000000E-05	0.000000000E+00	0.000000000E+00

</event>
<event>
	4	1	3.267126300E-02	1.268262000E+03	7.818608000E-03	9.055119000E-02
	-2	-1	0	0	0	501	-0.000000000E+00	0.000000000E+00	2.883795178E+02	2.883795179E+02	5.040000000E-03	0.000000000E+00	1.000000000E+00
	1	-1	0	0	501	0	0.000000000E+00	-0.000000000E+00	-1.394420364E+03	1.394420364E+03	2.550000000E-03	0.000000000E+00	-1.000000000E+00
	-24	1	1	2	0	0	5.470870478E+02	-2.945531542E+02	-7.057774611E+02	9.436946283E+02	7.982435975E+01	0.000000000E+00	-1.000000000E+00
	9000005	1	1	2	0	0	-5.470870478E+02	2.945531542E+02	-4.002633852E+02	7.391052537E+02	1.000000000E-05	0.000000000E+00	0.000000000E+00

</event>
<event>
	4	1	3.267126300E-02	1.254074000E+03	7.818608000E-03	9.066799000E-02
	1	-1	0	0	501	0	0.000000000E+00	0.000000000E+00	1.351010878E+03	1.351010878E+03	5.040000000E-03	0.000000000E+00	-1.000000000E+00
	-2	-1	0	0	0	501	-0.000000000E+00	-0.000000000E+00	-2.910233263E+02	2.910233263E+02	2.550000000E-03	0.000000000E+00	1.000000000E+00
	-24	1	1	2	0	0	-3.255615264E+02	5.115030492E+02	7.279789474E+02	9.507633528E+02	7.982435975E+01	0.000000000E+00	-1.000000000E+00
	9000005	1	1	2	0	0	3.255615264E+02	-5.115030492E+02	3.320086042E+02	6.912708515E+02	1.000000000E-05	0.000000000E+00	0.000000000E+00

</event>
<event>
	4	1	3.267126300E-02	1.322086000E+03	7.818608000E-03	9.012232000E-02
	-2	-1	0	0	0	501	-0.000000000E+00	0.000000000E+00	8.152873976E+02	8.152873976E+02	5.040000000E-03	0.000000000E+00	1.000000000E+00
	1	-1	0	0	501	0	0.000000000E+00	-0.000000000E+00	-5.359802776E+02	5.359802776E+02	2.550000000E-03	0.000000000E+00	-1.000000000E+00
	-24	1	1	2	0	0	-5.701311412E+02	-2.575089051E+02	-7.038784331E+01	6.345760248E+02	7.982435975E+01	0.000000000E+00	-1.000000000E+00
	9000005	1	1	2	0	0	5.701311412E+02	2.575089051E+02	3.496949633E+02	7.166916504E+02	1.000000000E-05	0.000000000E+00	0.000000000E+00

</event>
<event>
	4	1	3.267126300E-02	1.380318000E+03	7.818608000E-03	8.968190000E-02
	-2	-1	0	0	0	501	-0.000000000E+00	0.000000000E+00	9.261884877E+02	9.261884877E+02	5.040000000E-03	0.000000000E+00	1.000000000E+00
	1	-1	0	0	501	0	0.000000000E+00	-0.000000000E+00	-5.142790317E+02	5.142790318E+02	2.550000000E-03	0.000000000E+00	-1.000000000E+00
	-24	1	1	2	0	0	4.276579464E+02	-4.353632806E+02	5.378146142E+02	8.173426411E+02	7.982435975E+01	0.000000000E+00	1.000000000E+00
	9000005	1	1	2	0	0	-4.276579464E+02	4.353632806E+02	-1.259051583E+02	6.231248784E+02	1.000000000E-05	0.000000000E+00	0.000000000E+00

</event>
<event>
	4	1	3.267126300E-02	1.324329000E+03	7.818608000E-03	9.010492000E-02
	-4	-1	0	0	0	501	-0.000000000E+00	0.000000000E+00	1.747401959E+03	1.747402420E+03	1.010000000E-01	0.000000000E+00	1.000000000E+00
	3	-1	0	0	501	0	0.000000000E+00	-0.000000000E+00	-2.509217769E+02	2.509217972E+02	1.270000000E+00	0.000000000E+00	-1.000000000E+00
	-24	1	1	2	0	0	-4.543726265E+02	-3.944849410E+02	1.159232183E+03	1.308535072E+03	7.982435975E+01	0.000000000E+00	1.000000000E+00
	9000005	1	1	2	0	0	4.543726265E+02	3.944849410E+02	3.372479989E+02	6.897891454E+02	1.000000000E-05	0.000000000E+00	0.000000000E+00

</event>
<event>
	4	1	3.267126300E-02	1.761182000E+03	7.818608000E-03	8.727219000E-02
	1	-1	0	0	501	0	0.000000000E+00	0.000000000E+00	1.745898535E+03	1.745898535E+03	5.040000000E-03	0.000000000E+00	-1.000000000E+00
	-2	-1	0	0	0	501	-0.000000000E+00	-0.000000000E+00	-4.441496792E+02	4.441496792E+02	2.550000000E-03	0.000000000E+00	1.000000000E+00
	-24	1	1	2	0	0	-8.517433067E+02	-1.585206931E+02	8.352320835E+02	1.206059713E+03	7.982435975E+01	0.000000000E+00	-1.000000000E+00
	9000005	1	1	2	0	0	8.517433067E+02	1.585206931E+02	4.665167721E+02	9.839885006E+02	1.000000000E-05	0.000000000E+00	0.000000000E+00

</event>
<event>
	4	1	3.267126300E-02	1.422126000E+03	7.818608000E-03	8.937956000E-02
	1	-1	0	0	501	0	0.000000000E+00	0.000000000E+00	1.282817415E+03	1.282817415E+03	5.040000000E-03	0.000000000E+00	-1.000000000E+00
	-2	-1	0	0	0	501	-0.000000000E+00	-0.000000000E+00	-3.941407926E+02	3.941407926E+02	2.550000000E-03	0.000000000E+00	1.000000000E+00
	-24	1	1	2	0	0	-5.512674310E+02	-3.421510136E+02	1.091693309E+02	6.627616222E+02	7.982435975E+01	0.000000000E+00	1.000000000E+00
	9000005	1	1	2	0	0	5.512674310E+02	3.421510136E+02	7.795072914E+02	1.014196585E+03	1.000000000E-05	0.000000000E+00	0.000000000E+00

</event>
<event>
	4	1	3.267126300E-02	1.804868000E+03	7.818608000E-03	8.703715000E-02
	1	-1	0	0	501	0	0.000000000E+00	0.000000000E+00	1.917696906E+03	1.917696906E+03	5.040000000E-03	0.000000000E+00	-1.000000000E+00
	-2	-1	0	0	0	501	-0.000000000E+00	-0.000000000E+00	-4.246693082E+02	4.246693082E+02	2.550000000E-03	0.000000000E+00	1.000000000E+00
	-24	1	1	2	0	0	3.509140207E+02	-6.005567097E+02	5.390158809E+00	7.001499795E+02	7.982435975E+01	0.000000000E+00	1.000000000E+00
	9000005	1	1	2	0	0	-3.509140207E+02	6.005567097E+02	1.487637439E+03	1.642216235E+03	1.000000000E-05	0.000000000E+00	0.000000000E+00

</event>
<event>
	4	1	3.267126300E-02	1.437514000E+03	7.818608000E-03	8.927103000E-02
	1	-1	0	0	501	0	0.000000000E+00	0.000000000E+00	1.310932103E+03	1.310932103E+03	5.040000000E-03	0.000000000E+00	-1.000000000E+00
	-2	-1	0	0	0	501	-0.000000000E+00	-0.000000000E+00	-3.940797458E+02	3.940797458E+02	2.550000000E-03	0.000000000E+00	1.000000000E+00
	-24	1	1	2	0	0	-5.725599686E+02	3.591716683E+02	1.776577196E+02	7.033941987E+02	7.982435975E+01	0.000000000E+00	1.000000000E+00
	9000005	1	1	2	0	0	5.725599686E+02	-3.591716683E+02	7.391946380E+02	1.001617650E+03	1.000000000E-05	0.000000000E+00	0.000000000E+00

</event>
<event>
	4	1	3.267126300E-02	2.830201000E+03	7.818608000E-03	8.293953000E-02
	-2	-1	0	0	0	501	-0.000000000E+00	0.000000000E+00	7.402110905E+02	7.402110905E+02	5.040000000E-03	0.000000000E+00	1.000000000E+00
	1	-1	0	0	501	0	0.000000000E+00	-0.000000000E+00	-2.705321823E+03	2.705321823E+03	2.550000000E-03	0.000000000E+00	-1.000000000E+00
	-24	1	1	2	0	0	1.139724707E+03	-7.730406651E+02	-5.930790788E+02	1.501558856E+03	7.982435975E+01	0.000000000E+00	1.000000000E+00
	9000005	1	1	2	0	0	-1.139724707E+03	7.730406651E+02	-1.372031654E+03	1.943974057E+03	1.000000000E-05	0.000000000E+00	0.000000000E+00

</event>
<event>
	4	1	3.267126300E-02	1.980770000E+03	7.818608000E-03	8.615664000E-02
	1	-1	0	0	501	0	0.000000000E+00	0.000000000E+00	4.941245049E+03	4.941245049E+03	5.040000000E-03	0.000000000E+00	-1.000000000E+00
	-2	-1	0	0	0	501	-0.000000000E+00	-0.000000000E+00	-1.985052002E+02	1.985052002E+02	2.550000000E-03	0.000000000E+00	1.000000000E+00
	-24	1	1	2	0	0	-9.628908994E+02	-1.090414525E+02	1.865217557E+03	2.103439418E+03	7.982435975E+01	0.000000000E+00	1.000000000E+00
	9000005	1	1	2	0	0	9.628908994E+02	1.090414525E+02	2.877522291E+03	3.036310831E+03	1.000000000E-05	0.000000000E+00	0.000000000E+00

</event>
<event>
	6	1	3.267126300E-02	2.081633000E+03	7.818608000E-03	8.569378000E-02
	2	-1	0	0	501	0	0.000000000E+00	0.000000000E+00	1.509782684E+03	1.509782684E+03	2.550000000E-03	0.000000000E+00	-1.000000000E+00
	-1	-1	0	0	0	501	-0.000000000E+00	-0.000000000E+00	-7.175199302E+02	7.175199302E+02	5.040000000E-03	0.000000000E+00	1.000000000E+00
	24	2	1	2	0	0	1.855389308E+02	9.308696757E+02	-5.622467626E+01	9.541671275E+02	7.956535036E+01	0.000000000E+00	0.000000000E+00
	-11	1	3	3	0	0	1.139751021E+02	6.873665858E+02	-1.410575207E+01	6.968946258E+02	5.110000000E-04	0.000000000E+00	1.000000000E+00
	12	1	3	3	0	0	7.156382872E+01	2.435030899E+02	-4.211892419E+01	2.572725018E+02	0.000000000E+00	0.000000000E+00	-1.000000000E+00
	9000005	1	1	2	0	0	-1.855389308E+02	-9.308696757E+02	8.484874298E+02	1.273135486E+03	1.000000000E-05	0.000000000E+00	0.000000000E+00

</event>
<event>
	4	1	3.267126300E-02	2.048674000E+03	7.818608000E-03	8.584196000E-02
	1	-1	0	0	501	0	0.000000000E+00	0.000000000E+00	9.648953416E+02	9.648953416E+02	5.040000000E-03	0.000000000E+00	-1.000000000E+00
	-2	-1	0	0	0	501	-0.000000000E+00	-0.000000000E+00	-1.087441002E+03	1.087441002E+03	2.550000000E-03	0.000000000E+00	1.000000000E+00
	-24	1	1	2	0	0	6.935010133E+02	-3.393879426E+02	-7.333519813E+02	1.067850593E+03	7.982435975E+01	0.000000000E+00	1.000000000E+00
	9000005	1	1	2	0	0	-6.935010133E+02	3.393879426E+02	6.108063214E+02	9.844857507E+02	1.000000000E-05	0.000000000E+00	0.000000000E+00

</event>
<event>
	4	1	3.267126300E-02	1.453352000E+03	7.818608000E-03	8.916080000E-02
	1	-1	0	0	501	0	0.000000000E+00	0.000000000E+00	3.293956954E+02	3.293956955E+02	5.040000000E-03	0.000000000E+00	-1.000000000E+00
	-2	-1	0	0	0	501	-0.000000000E+00	-0.000000000E+00	-1.603110969E+03	1.603110969E+03	2.550000000E-03	0.000000000E+00	1.000000000E+00
	-24	1	1	2	0	0	2.312465027E+02	-6.852000751E+02	-6.967783905E+02	1.007395723E+03	7.982435975E+01	0.000000000E+00	1.000000000E+00
	9000005	1	1	2	0	0	-2.312465027E+02	6.852000751E+02	-5.769368834E+02	9.251109422E+02	1.000000000E-05	0.000000000E+00	0.000000000E+00

</event>
<event>
	4	1	3.267126300E-02	1.431098000E+03	7.818608000E-03	8.931611000E-02
	1	-1	0	0	501	0	0.000000000E+00	0.000000000E+00	1.251613605E+03	1.251613605E+03	5.040000000E-03	0.000000000E+00	-1.000000000E+00
	-2	-1	0	0	0	501	-0.000000000E+00	-0.000000000E+00	-4.090803843E+02	4.090803843E+02	2.550000000E-03	0.000000000E+00	1.000000000E+00
	-24	1	1	2	0	0	6.238050079E+02	5.198207035E+01	8.194975821E+02	1.034303166E+03	7.982435975E+01	0.000000000E+00	-1.000000000E+00
	9000005	1	1	2	0	0	-6.238050079E+02	-5.198207035E+01	2.303563905E+01	6.263908238E+02	1.000000000E-05	0.000000000E+00	0.000000000E+00

</event>
<event>
	4	1	3.267126300E-02	1.873034000E+03	7.818608000E-03	8.668397000E-02
	-2	-1	0	0	0	501	-0.000000000E+00	0.000000000E+00	5.049351261E+02	5.049351261E+02	5.040000000E-03	0.000000000E+00	1.000000000E+00
	1	-1	0	0	501	0	0.000000000E+00	-0.000000000E+00	-1.736982908E+03	1.736982908E+03	2.550000000E-03	0.000000000E+00	-1.000000000E+00
	-24	1	1	2	0	0	-1.125569807E+02	8.832104501E+02	-2.761692143E+02	9.356127064E+02	7.982435975E+01	0.000000000E+00	1.000000000E+00
	9000005	1	1	2	0	0	1.125569807E+02	-8.832104501E+02	-9.558785676E+02	1.306305328E+03	1.000000000E-05	0.000000000E+00	0.000000000E+00

</event>
<event>
	6	1	3.267126300E-02	1.301837000E+03	7.818608000E-03	9.028109000E-02
	2	-1	0	0	501	0	0.000000000E+00	0.000000000E+00	4.014463346E+02	4.014463347E+02	2.550000000E-03	0.000000000E+00	-1.000000000E+00
	-1	-1	0	0	0	501	-0.000000000E+00	-0.000000000E+00	-1.055421426E+03	1.055421426E+03	5.040000000E-03	0.000000000E+00	1.000000000E+00
	24	2	1	2	0	0	-2.130773807E+00	6.407934906E+02	-4.393246320E+02	7.810751463E+02	8.032069462E+01	0.000000000E+00	0.000000000E+00
	-11	1	3	3	0	0	1.057299971E+01	6.261969096E+02	-4.229433835E+02	7.557218162E+02	5.110000000E-04	0.000000000E+00	1.000000000E+00
	12	1	3	3	0	0	-1.270377352E+01	1.459658102E+01	-1.638124856E+01	2.535333003E+01	0.000000000E+00	0.000000000E+00	-1.000000000E+00
	9000005	1	1	2	0	0	2.130773807E+00	-6.407934906E+02	-2.146504592E+02	6.757926143E+02	1.000000000E-05	0.000000000E+00	0.000000000E+00

</event>
<event>
	4	1	3.267126300E-02	1.820360000E+03	7.818608000E-03	8.695546000E-02
	1	-1	0	0	501	0	0.000000000E+00	0.000000000E+00	3.741073903E+02	3.741073904E+02	5.040000000E-03	0.000000000E+00	-1.000000000E+00
	-2	-1	0	0	0	501	-0.000000000E+00	-0.000000000E+00	-2.214412010E+03	2.214412010E+03	2.550000000E-03	0.000000000E+00	1.000000000E+00
	-24	1	1	2	0	0	8.961456508E+02	-1.126118670E+02	-1.060421080E+03	1.395214412E+03	7.982435975E+01	0.000000000E+00	-1.000000000E+00
	9000005	1	1	2	0	0	-8.961456508E+02	1.126118670E+02	-7.798835396E+02	1.193304988E+03	1.000000000E-05	0.000000000E+00	0.000000000E+00

</event>
<event>
	4	1	3.267126300E-02	1.409188000E+03	7.818608000E-03	8.947194000E-02
	1	-1	0	0	501	0	0.000000000E+00	0.000000000E+00	1.929645550E+02	1.929645551E+02	5.040000000E-03	0.000000000E+00	-1.000000000E+00
	-2	-1	0	0	0	501	-0.000000000E+00	-0.000000000E+00	-2.572767847E+03	2.572767847E+03	2.550000000E-03	0.000000000E+00	1.000000000E+00
	-24	1	1	2	0	0	4.720616462E+02	5.167232850E+02	-1.308613908E+03	1.486165347E+03	7.982435975E+01	0.000000000E+00	1.000000000E+00
	9000005	1	1	2	0	0	-4.720616462E+02	-5.167232850E+02	-1.071189384E+03	1.279567055E+03	1.000000000E-05	0.000000000E+00	0.000000000E+00

</event>
<event>
	4	1	3.267126300E-02	2.306449000E+03	7.818608000E-03	8.475383000E-02
	-2	-1	0	0	0	501	-0.000000000E+00	0.000000000E+00	2.191838148E+03	2.191838148E+03	5.040000000E-03	0.000000000E+00	1.000000000E+00
	1	-1	0	0	501	0	0.000000000E+00	-0.000000000E+00	-6.067632050E+02	6.067632050E+02	2.550000000E-03	0.000000000E+00	-1.000000000E+00
	-24	1	1	2	0	0	7.831803260E+01	1.074307748E+03	1.288557860E+03	1.681375668E+03	7.982435975E+01	0.000000000E+00	1.000000000E+00
	9000005	1	1	2	0	0	-7.831803260E+01	-1.074307748E+03	2.965170832E+02	1.117225685E+03	1.000000000E-05	0.000000000E+00	0.000000000E+00

</event>
<event>
	6	1	3.267126300E-02	1.468590000E+03	7.818608000E-03	8.905613000E-02
	-1	-1	0	0	0	501	-0.000000000E+00	0.000000000E+00	1.020895369E+03	1.020895369E+03	2.550000000E-03	0.000000000E+00	1.000000000E+00
	2	-1	0	0	501	0	0.000000000E+00	-0.000000000E+00	-5.281533213E+02	5.281533213E+02	5.040000000E-03	0.000000000E+00	-1.000000000E+00
	24	2	1	2	0	0	-3.845035676E+02	6.213860244E+02	2.926805816E+02	7.914286172E+02	8.205942055E+01	0.000000000E+00	0.000000000E+00
	-11	1	3	3	0	0	-3.587446035E+02	5.287156333E+02	2.480619641E+02	6.853996276E+02	5.110000000E-04	0.000000000E+00	1.000000000E+00
	12	1	3	3	0	0	-2.575896406E+01	9.267039108E+01	4.461861753E+01	1.060289896E+02	0.000000000E+00	0.000000000E+00	-1.000000000E+00
	9000005	1	1	2	0	0	3.845035676E+02	-6.213860244E+02	2.000614659E+02	7.576200729E+02	1.000000000E-05	0.000000000E+00	0.000000000E+00

</event>
<event>
	4	1	3.267126300E-02	2.101007000E+03	7.818608000E-03	8.560800000E-02
	1	-1	0	0	501	0	0.000000000E+00	0.000000000E+00	1.182651537E+03	1.182651537E+03	5.040000000E-03	0.000000000E+00	-1.000000000E+00
	-2	-1	0	0	0	501	-0.000000000E+00	-0.000000000E+00	-9.331218952E+02	9.331218952E+02	2.550000000E-03	0.000000000E+00	1.000000000E+00
	-24	1	1	2	0	0	-6.448136998E+02	2.835035719E+02	9.077208563E+02	1.151732636E+03	7.982435975E+01	0.000000000E+00	-1.000000000E+00
	9000005	1	1	2	0	0	6.448136998E+02	-2.835035719E+02	-6.581912144E+02	9.640407966E+02	1.000000000E-05	0.000000000E+00	0.000000000E+00

</event>
<event>
	4	1	3.267126300E-02	1.299789000E+03	7.818608000E-03	9.029732000E-02
	1	-1	0	0	501	0	0.000000000E+00	0.000000000E+00	1.156796262E+03	1.156796262E+03	5.040000000E-03	0.000000000E+00	-1.000000000E+00
	-2	-1	0	0	0	501	-0.000000000E+00	-0.000000000E+00	-3.651143376E+02	3.651143376E+02	2.550000000E-03	0.000000000E+00	1.000000000E+00
	-24	1	1	2	0	0	1.629926190E+02	5.800013848E+02	1.197199006E+02	6.194134186E+02	7.982435975E+01	0.000000000E+00	1.000000000E+00
	9000005	1	1	2	0	0	-1.629926190E+02	-5.800013848E+02	6.719620239E+02	9.024971810E+02	1.000000000E-05	0.000000000E+00	0.000000000E+00

</event>
<event>
	4	1	3.267126300E-02	1.890087000E+03	7.818608000E-03	8.659806000E-02
	1	-1	0	0	501	0	0.000000000E+00	0.000000000E+00	1.732311886E+03	1.732311886E+03	5.040000000E-03	0.000000000E+00	-1.000000000E+00
	-2	-1	0	0	0	501	-0.000000000E+00	-0.000000000E+00	-5.155579749E+02	5.155579749E+02	2.550000000E-03	0.000000000E+00	1.000000000E+00
	-24	1	1	2	0	0	-6.922016387E+02	3.563407596E+02	-2.411182198E+01	7.829911583E+02	7.982435975E+01	0.000000000E+00	1.000000000E+00
	9000005	1	1	2	0	0	6.922016387E+02	-3.563407596E+02	1.240865733E+03	1.464878702E+03	1.000000000E-05	0.000000000E+00	0.000000000E+00

</event>
<event>
	6	1	3.267126300E-02	1.950161000E+03	7.818608000E-03	8.630283000E-02
	-1	-1	0	0	0	501	-0.000000000E+00	0.000000000E+00	3.789262896E+02	3.789262897E+02	2.550000000E-03	0.000000000E+00	1.000000000E+00
	2	-1	0	0	501	0	0.000000000E+00	-0.000000000E+00	-2.509148790E+03	2.509148790E+03	5.040000000E-03	0.000000000E+00	-1.000000000E+00
	24	2	1	2	0	0	6.219055252E+02	-3.226121646E+02	-6.616916794E+01	7.083592151E+02	8.092791739E+01	0.000000000E+00	0.000000000E+00
	-11	1	3	3	0	0	5.765743612E+02	-3.208117082E+02	-5.931542630E+01	6.624775211E+02	5.110000000E-04	0.000000000E+00	1.000000000E+00
	12	1	3	3	0	0	4.533116402E+01	-1.800456378E+00	-6.853741640E+00	4.588169405E+01	0.000000000E+00	0.000000000E+00	-1.000000000E+00
	9000005	1	1	2	0	0	-6.219055252E+02	3.226121646E+02	-2.064053332E+03	2.179715864E+03	1.000000000E-05	0.000000000E+00	0.000000000E+00

</event>
<event>
	4	1	3.267126300E-02	1.363222000E+03	7.818608000E-03	8.980879000E-02
	3	-1	0	0	501	0	0.000000000E+00	0.000000000E+00	9.173335655E+02	9.173335710E+02	1.010000000E-01	0.000000000E+00	-1.000000000E+00
	-4	-1	0	0	0	501	-0.000000000E+00	-0.000000000E+00	-5.064595830E+02	5.064611754E+02	1.270000000E+00	0.000000000E+00	1.000000000E+00
	-24	1	1	2	0	0	-4.497633087E+02	5.087078321E+02	1.868174434E+02	7.087618626E+02	7.982435975E+01	0.000000000E+00	1.000000000E+00
	9000005	1	1	2	0	0	4.497633087E+02	-5.087078321E+02	2.240565390E+02	7.150328838E+02	1.000000000E-05	0.000000000E+00	0.000000000E+00

</event>
<event>
	4	1	3.267126300E-02	1.283564000E+03	7.818608000E-03	9.042702000E-02
	3	-1	0	0	501	0	0.000000000E+00	0.000000000E+00	4.062404523E+02	4.062404649E+02	1.010000000E-01	0.000000000E+00	-1.000000000E+00
	-4	-1	0	0	0	501	-0.000000000E+00	-0.000000000E+00	-1.013891144E+03	1.013891939E+03	1.270000000E+00	0.000000000E+00	1.000000000E+00
	-24	1	1	2	0	0	2.144532758E+02	5.912302653E+02	-1.780732249E+02	6.585024191E+02	7.982435975E+01	0.000000000E+00	-1.000000000E+00
	9000005	1	1	2	0	0	-2.144532758E+02	-5.912302653E+02	-4.295774665E+02	7.616299849E+02	1.000000000E-05	0.000000000E+00	0.000000000E+00

</event>
<event>
	4	1	3.267126300E-02	1.559828000E+03	7.818608000E-03	8.845614000E-02
	1	-1	0	0	501	0	0.000000000E+00	0.000000000E+00	3.056677118E+03	3.056677118E+03	5.040000000E-03	0.000000000E+00	-1.000000000E+00
	-2	-1	0	0	0	501	-0.000000000E+00	-0.000000000E+00	-1.989958557E+02	1.989958557E+02	2.550000000E-03	0.000000000E+00	1.000000000E+00
	-24	1	1	2	0	0	5.099809719E+02	5.132859998E+02	2.028591128E+03	2.155248710E+03	7.982435975E+01	0.000000000E+00	1.000000000E+00
	9000005	1	1	2	0	0	-5.099809719E+02	-5.132859998E+02	8.290901341E+02	1.100424264E+03	1.000000000E-05	0.000000000E+00	0.000000000E+00

</event>
<event>
	4	1	3.267126300E-02	1.819211000E+03	7.818608000E-03	8.696149000E-02
	1	-1	0	0	501	0	0.000000000E+00	0.000000000E+00	6.826565909E+02	6.826565909E+02	5.040000000E-03	0.000000000E+00	-1.000000000E+00
	-2	-1	0	0	0	501	-0.000000000E+00	-0.000000000E+00	-1.212003572E+03	1.212003572E+03	2.550000000E-03	0.000000000E+00	1.000000000E+00
	-24	1	1	2	0	0	-3.364871357E+02	8.231658355E+02	-4.554444801E+02	1.002310924E+03	7.982435975E+01	0.000000000E+00	-1.000000000E+00
	9000005	1	1	2	0	0	3.364871357E+02	-8.231658355E+02	-7.390250133E+01	8.923492393E+02	1.000000000E-05	0.000000000E+00	0.000000000E+00

</event>
<event>
	4	1	3.267126300E-02	3.066342000E+03	7.818608000E-03	8.225036000E-02
	-2	-1	0	0	0	501	-0.000000000E+00	0.000000000E+00	1.462220728E+03	1.462220728E+03	5.040000000E-03	0.000000000E+00	1.000000000E+00
	1	-1	0	0	501	0	0.000000000E+00	-0.000000000E+00	-1.607564060E+03	1.607564060E+03	2.550000000E-03	0.000000000E+00	-1.000000000E+00
	-24	1	1	2	0	0	-1.527123811E+03	9.950251192E+01	-1.464291258E+02	1.539422392E+03	7.982435975E+01	0.000000000E+00	-1.000000000E+00
	9000005	1	1	2	0	0	1.527123811E+03	-9.950251192E+01	1.085793069E+00	1.530362396E+03	1.000000000E-05	0.000000000E+00	0.000000000E+00

</event>
<event>
	4	1	3.267126300E-02	1.660624000E+03	7.818608000E-03	8.784146000E-02
	1	-1	0	0	501	0	0.000000000E+00	0.000000000E+00	1.869618840E+03	1.869618840E+03	5.040000000E-03	0.000000000E+00	-1.000000000E+00
	-2	-1	0	0	0	501	-0.000000000E+00	-0.000000000E+00	-3.687478425E+02	3.687478425E+02	2.550000000E-03	0.000000000E+00	1.000000000E+00
	-24	1	1	2	0	0	-5.827635223E+02	-1.965336161E+02	4.115228844E+00	6.201835605E+02	7.982435975E+01	0.000000000E+00	1.000000000E+00
	9000005	1	1	2	0	0	5.827635223E+02	1.965336161E+02	1.496755768E+03	1.618183122E+03	1.000000000E-05	0.000000000E+00	0.000000000E+00

</event>
<event>
	4	1	3.267126300E-02	1.632460000E+03	7.818608000E-03	8.800851000E-02
	-2	-1	0	0	0	501	-0.000000000E+00	0.000000000E+00	2.999806690E+02	2.999806690E+02	5.040000000E-03	0.000000000E+00	1.000000000E+00
	1	-1	0	0	501	0	0.000000000E+00	-0.000000000E+00	-2.220915424E+03	2.220915424E+03	2.550000000E-03	0.000000000E+00	-1.000000000E+00
	-24	1	1	2	0	0	4.230416154E+02	-6.394749055E+02	-5.394158676E+02	9.408686251E+02	7.982435975E+01	0.000000000E+00	1.000000000E+00
	9000005	1	1	2	0	0	-4.230416154E+02	6.394749055E+02	-1.381518888E+03	1.580027468E+03	1.000000000E-05	0.000000000E+00	0.000000000E+00

</event>
<event>
	4	1	3.267126300E-02	1.954236000E+03	7.818608000E-03	8.628321000E-02
	-2	-1	0	0	0	501	-0.000000000E+00	0.000000000E+00	1.145647796E+03	1.145647796E+03	5.040000000E-03	0.000000000E+00	1.000000000E+00
	1	-1	0	0	501	0	0.000000000E+00	-0.000000000E+00	-8.333794012E+02	8.333794012E+02	2.550000000E-03	0.000000000E+00	-1.000000000E+00
	-24	1	1	2	0	0	8.228127761E+01	-7.182609088E+02	-5.068234505E+02	8.865161478E+02	7.982435975E+01	0.000000000E+00	1.000000000E+00
	9000005	1	1	2	0	0	-8.228127761E+01	7.182609088E+02	8.190918453E+02	1.092511049E+03	1.000000000E-05	0.000000000E+00	0.000000000E+00

</event>
<event>
	4	1	3.267126300E-02	3.433370000E+03	7.818608000E-03	8.129764000E-02
	1	-1	0	0	501	0	0.000000000E+00	0.000000000E+00	2.030967122E+03	2.030967122E+03	5.040000000E-03	0.000000000E+00	-1.000000000E+00
	-2	-1	0	0	0	501	-0.000000000E+00	-0.000000000E+00	-1.451036429E+03	1.451036429E+03	2.550000000E-03	0.000000000E+00	1.000000000E+00
	-24	1	1	2	0	0	-1.490206388E+03	-4.108108021E+02	-4.649655153E+02	1.616182370E+03	7.982435975E+01	0.000000000E+00	1.000000000E+00
	9000005	1	1	2	0	0	1.490206388E+03	4.108108021E+02	1.044896208E+03	1.865821181E+03	1.000000000E-05	0.000000000E+00	0.000000000E+00

</event>
<event>
	4	1	3.267126300E-02	1.517648000E+03	7.818608000E-03	8.872801000E-02
	1	-1	0	0	501	0	0.000000000E+00	0.000000000E+00	1.692031766E+03	1.692031766E+03	5.040000000E-03	0.000000000E+00	-1.000000000E+00
	-2	-1	0	0	0	501	-0.000000000E+00	-0.000000000E+00	-3.403090506E+02	3.403090506E+02	2.550000000E-03	0.000000000E+00	1.000000000E+00
	-24	1	1	2	0	0	6.208128574E+02	-2.444048406E+02	1.995820449E+02	7.009616616E+02	7.982435975E+01	0.000000000E+00	1.000000000E+00
	9000005	1	1	2	0	0	-6.208128574E+02	2.444048406E+02	1.152140671E+03	1.331379155E+03	1.000000000E-05	0.000000000E+00	0.000000000E+00

</event>
<event>
	4	1	3.267126300E-02	2.256946000E+03	7.818608000E-03	8.495093000E-02
	-2	-1	0	0	0	501	-0.000000000E+00	0.000000000E+00	4.251015750E+02	4.251015750E+02	5.040000000E-03	0.000000000E+00	1.000000000E+00
	1	-1	0	0	501	0	0.000000000E+00	-0.000000000E+00	-2.995641112E+03	2.995641112E+03	2.550000000E-03	0.000000000E+00	-1.000000000E+00
	-24	1	1	2	0	0	-8.033944702E+02	7.750072653E+02	-1.522603134E+03	1.889648425E+03	7.982435975E+01	0.000000000E+00	-1.000000000E+00
	9000005	1	1	2	0	0	8.033944702E+02	-7.750072653E+02	-1.047936403E+03	1.531094263E+03	1.000000000E-05	0.000000000E+00	0.000000000E+00

</event>
<event>
	4	1	3.267126300E-02	1.784508000E+03	7.818608000E-03	8.714582000E-02
	-2	-1	0	0	0	501	-0.000000000E+00	0.000000000E+00	5.799509418E+02	5.799509418E+02	5.040000000E-03	0.000000000E+00	1.000000000E+00
	1	-1	0	0	501	0	0.000000000E+00	-0.000000000E+00	-1.372731285E+03	1.372731285E+03	2.550000000E-03	0.000000000E+00	-1.000000000E+00
	-24	1	1	2	0	0	3.484398379E+01	-6.473814655E+02	-1.065134331E+03	1.249479866E+03	7.982435975E+01	0.000000000E+00	-1.000000000E+00
	9000005	1	1	2	0	0	-3.484398379E+01	6.473814655E+02	2.723539877E+02	7.032023604E+02	1.000000000E-05	0.000000000E+00	0.000000000E+00

</event>
<event>
	4	1	3.267126300E-02	1.391607000E+03	7.818608000E-03	8.959916000E-02
	-2	-1	0	0	0	501	-0.000000000E+00	0.000000000E+00	3.946225193E+02	3.946225193E+02	5.040000000E-03	0.000000000E+00	1.000000000E+00
	1	-1	0	0	501	0	0.000000000E+00	-0.000000000E+00	-1.226850271E+03	1.226850271E+03	2.550000000E-03	0.000000000E+00	-1.000000000E+00
	-24	1	1	2	0	0	5.940557136E+02	-1.071343983E+02	-1.964269485E+01	6.092107468E+02	7.982435975E+01	0.000000000E+00	1.000000000E+00
	9000005	1	1	2	0	0	-5.940557136E+02	1.071343983E+02	-8.125850572E+02	1.012262044E+03	1.000000000E-05	0.000000000E+00	0.000000000E+00

</event>
<event>
	4	1	3.267126300E-02	1.988590000E+03	7.818608000E-03	8.611974000E-02
	-2	-1	0	0	0	501	-0.000000000E+00	0.000000000E+00	4.321760898E+02	4.321760898E+02	5.040000000E-03	0.000000000E+00	1.000000000E+00
	1	-1	0	0	501	0	0.000000000E+00	-0.000000000E+00	-2.287545922E+03	2.287545922E+03	2.550000000E-03	0.000000000E+00	-1.000000000E+00
	-24	1	1	2	0	0	-9.510217781E+02	2.122722721E+02	-1.188449580E+03	1.538923738E+03	7.982435975E+01	0.000000000E+00	1.000000000E+00
	9000005	1	1	2	0	0	9.510217781E+02	-2.122722721E+02	-6.669202526E+02	1.180798274E+03	1.000000000E-05	0.000000000E+00	0.000000000E+00

</event>
<event>
	4	1	3.267126300E-02	1.338514000E+03	7.818608000E-03	8.999569000E-02
	-2	-1	0	0	0	501	-0.000000000E+00	0.000000000E+00	7.418911830E+02	7.418911830E+02	5.040000000E-03	0.000000000E+00	1.000000000E+00
	1	-1	0	0	501	0	0.000000000E+00	-0.000000000E+00	-6.037339877E+02	6.037339877E+02	2.550000000E-03	0.000000000E+00	-1.000000000E+00
	-24	1	1	2	0	0	-5.907388401E+02	-3.092911136E+02	7.892769959E+01	6.761914524E+02	7.982435975E+01	0.000000000E+00	-1.000000000E+00
	9000005	1	1	2	0	0	5.907388401E+02	3.092911136E+02	5.922949571E+01	6.694337184E+02	1.000000000E-05	0.000000000E+00	0.000000000E+00

</event>
<event>
	4	1	3.267126300E-02	1.306376000E+03	7.818608000E-03	9.024524000E-02
	1	-1	0	0	501	0	0.000000000E+00	0.000000000E+00	4.464000652E+02	4.464000652E+02	5.040000000E-03	0.000000000E+00	-1.000000000E+00
	-2	-1	0	0	0	501	-0.000000000E+00	-0.000000000E+00	-9.557676985E+02	9.557676985E+02	2.550000000E-03	0.000000000E+00	1.000000000E+00
	-24	1	1	2	0	0	5.003191095E+01	-6.253450944E+02	-6.999253188E+01	6.362629662E+02	7.982435975E+01	0.000000000E+00	-1.000000000E+00
	9000005	1	1	2	0	0	-5.003191095E+01	6.253450944E+02	-4.393751014E+02	7.659047976E+02	1.000000000E-05	0.000000000E+00	0.000000000E+00

</event>
<event>
	4	1	3.267126300E-02	1.933301000E+03	7.818608000E-03	8.638456000E-02
	-2	-1	0	0	0	501	-0.000000000E+00	0.000000000E+00	3.269491101E+02	3.269491101E+02	5.040000000E-03	0.000000000E+00	1.000000000E+00
	1	-1	0	0	501	0	0.000000000E+00	-0.000000000E+00	-2.857976559E+03	2.857976559E+03	2.550000000E-03	0.000000000E+00	-1.000000000E+00
	-24	1	1	2	0	0	-9.218080435E+02	-2.607872048E+02	-1.076333896E+03	1.443123910E+03	7.982435975E+01	0.000000000E+00	-1.000000000E+00
	9000005	1	1	2	0	0	9.218080435E+02	2.607872048E+02	-1.454693553E+03	1.741801759E+03	1.000000000E-05	0.000000000E+00	0.000000000E+00

</event>
<event>
	4	1	3.267126300E-02	1.631802000E+03	7.818608000E-03	8.801245000E-02
	-2	-1	0	0	0	501	-0.000000000E+00	0.000000000E+00	5.368762918E+02	5.368762918E+02	5.040000000E-03	0.000000000E+00	1.000000000E+00
	1	-1	0	0	501	0	0.000000000E+00	-0.000000000E+00	-1.239940841E+03	1.239940841E+03	2.550000000E-03	0.000000000E+00	-1.000000000E+00
	-24	1	1	2	0	0	7.703029638E+02	1.714492813E+01	-6.665805336E+01	7.774804365E+02	7.982435975E+01	0.000000000E+00	1.000000000E+00
	9000005	1	1	2	0	0	-7.703029638E+02	-1.714492813E+01	-6.364064957E+02	9.993366962E+02	1.000000000E-05	0.000000000E+00	0.000000000E+00

</event>
<event>
	4	1	3.267126300E-02	1.856264000E+03	7.818608000E-03	8.676938000E-02
	1	-1	0	0	501	0	0.000000000E+00	0.000000000E+00	2.915976559E+03	2.915976559E+03	5.040000000E-03	0.000000000E+00	-1.000000000E+00
	-2	-1	0	0	0	501	-0.000000000E+00	-0.000000000E+00	-2.954170349E+02	2.954170349E+02	2.550000000E-03	0.000000000E+00	1.000000000E+00
	-24	1	1	2	0	0	-4.880640484E+02	-5.111084840E+02	2.764047814E+02	7.630268208E+02	7.982435975E+01	0.000000000E+00	1.000000000E+00
	9000005	1	1	2	0	0	4.880640484E+02	5.111084840E+02	2.344154743E+03	2.448366773E+03	1.000000000E-05	0.000000000E+00	0.000000000E+00

</event>
<event>
	4	1	3.267126300E-02	1.245202000E+03	7.818608000E-03	9.074186000E-02
	1	-1	0	0	501	0	0.000000000E+00	0.000000000E+00	5.638876903E+02	5.638876903E+02	5.040000000E-03	0.000000000E+00	-1.000000000E+00
	-2	-1	0	0	0	501	-0.000000000E+00	-0.000000000E+00	-6.874278246E+02	6.874278246E+02	2.550000000E-03	0.000000000E+00	1.000000000E+00
	-24	1	1	2	0	0	4.746892969E+02	-3.973790913E+02	-2.703054794E+01	6.247740789E+02	7.982435975E+01	0.000000000E+00	-1.000000000E+00
	9000005	1	1	2	0	0	-4.746892969E+02	3.973790913E+02	-9.650958638E+01	6.265414360E+02	1.000000000E-05	0.000000000E+00	0.000000000E+00

</event>
<event>
	4	1	3.267126300E-02	1.581873000E+03	7.818608000E-03	8.831762000E-02
	1	-1	0	0	501	0	0.000000000E+00	0.000000000E+00	5.981835478E+02	5.981835478E+02	5.040000000E-03	0.000000000E+00	-1.000000000E+00
	-2	-1	0	0	0	501	-0.000000000E+00	-0.000000000E+00	-1.045800053E+03	1.045800053E+03	2.550000000E-03	0.000000000E+00	1.000000000E+00
	-24	1	1	2	0	0	5.337905122E+02	-5.136813421E+02	-5.063189319E+02	9.008504989E+02	7.982435975E+01	0.000000000E+00	1.000000000E+00
	9000005	1	1	2	0	0	-5.337905122E+02	5.136813421E+02	5.870242664E+01	7.431331019E+02	1.000000000E-05	0.000000000E+00	0.000000000E+00

</event>
<event>
	6	1	3.267126300E-02	1.864824000E+03	7.818608000E-03	8.672566000E-02
	2	-1	0	0	501	0	0.000000000E+00	0.000000000E+00	1.821190039E+03	1.821190039E+03	2.550000000E-03	0.000000000E+00	-1.000000000E+00
	-1	-1	0	0	0	501	-0.000000000E+00	-0.000000000E+00	-4.773759834E+02	4.773759834E+02	5.040000000E-03	0.000000000E+00	1.000000000E+00
	24	2	1	2	0	0	-7.822286760E+02	1.378325827E+02	7.587355473E+01	8.023866760E+02	8.478242224E+01	0.000000000E+00	0.000000000E+00
	-11	1	3	3	0	0	-7.078568631E+02	1.009034157E+02	7.850480851E+01	7.193092819E+02	5.110000000E-04	0.000000000E+00	1.000000000E+00
	12	1	3	3	0	0	-7.437181286E+01	3.692916701E+01	-2.631253789E+00	8.307739416E+01	0.000000000E+00	0.000000000E+00	-1.000000000E+00
	9000005	1	1	2	0	0	7.822286760E+02	-1.378325827E+02	1.267940501E+03	1.496179346E+03	1.000000000E-05	0.000000000E+00	0.000000000E+00

</event>
<event>
	6	1	3.267126300E-02	2.327559000E+03	7.818608000E-03	8.467134000E-02
	2	-1	0	0	501	0	0.000000000E+00	0.000000000E+00	1.837066176E+03	1.837066176E+03	2.550000000E-03	0.000000000E+00	-1.000000000E+00
	-1	-1	0	0	0	501	-0.000000000E+00	-0.000000000E+00	-7.372531532E+02	7.372531533E+02	5.040000000E-03	0.000000000E+00	1.000000000E+00
	24	2	1	2	0	0	-1.060515831E+03	-2.793530350E+02	1.240213907E+02	1.106361136E+03	7.695266429E+01	0.000000000E+00	0.000000000E+00
	-11	1	3	3	0	0	-8.309139296E+02	-2.480609216E+02	1.116055759E+02	8.743042856E+02	5.110000000E-04	0.000000000E+00	1.000000000E+00
	12	1	3	3	0	0	-2.296019016E+02	-3.129211335E+01	1.241581485E+01	2.320568509E+02	0.000000000E+00	0.000000000E+00	-1.000000000E+00
	9000005	1	1	2	0	0	1.060515831E+03	2.793530350E+02	9.757916315E+02	1.467958192E+03	1.000000000E-05	0.000000000E+00	0.000000000E+00

</event>
<event>
	4	1	3.267126300E-02	1.443441000E+03	7.818608000E-03	8.922960000E-02
	1	-1	0	0	501	0	0.000000000E+00	0.000000000E+00	9.108309627E+02	9.108309628E+02	5.040000000E-03	0.000000000E+00	-1.000000000E+00
	-2	-1	0	0	0	501	-0.000000000E+00	-0.000000000E+00	-5.718740377E+02	5.718740377E+02	2.550000000E-03	0.000000000E+00	1.000000000E+00
	-24	1	1	2	0	0	-5.822319956E+02	3.102407896E+02	-1.249658081E+02	6.761891938E+02	7.982435975E+01	0.000000000E+00	1.000000000E+00
	9000005	1	1	2	0	0	5.822319956E+02	-3.102407896E+02	4.639227331E+02	8.065158067E+02	1.000000000E-05	0.000000000E+00	0.000000000E+00

</event>
<event>
	4	1	3.267126300E-02	1.901419000E+03	7.818608000E-03	8.654150000E-02
	-2	-1	0	0	0	501	-0.000000000E+00	0.000000000E+00	2.630476282E+03	2.630476282E+03	5.040000000E-03	0.000000000E+00	1.000000000E+00
	1	-1	0	0	501	0	0.000000000E+00	-0.000000000E+00	-3.436065655E+02	3.436065655E+02	2.550000000E-03	0.000000000E+00	-1.000000000E+00
	-24	1	1	2	0	0	7.501403767E+02	-5.718373971E+02	1.309178625E+03	1.615558477E+03	7.982435975E+01	0.000000000E+00	1.000000000E+00
	9000005	1	1	2	0	0	-7.501403767E+02	5.718373971E+02	9.776910915E+02	1.358524370E+03	1.000000000E-05	0.000000000E+00	0.000000000E+00

</event>
<event>
	4	1	3.267126300E-02	1.223567000E+03	7.818608000E-03	9.092475000E-02
	-2	-1	0	0	0	501	-0.000000000E+00	0.000000000E+00	3.173894849E+02	3.173894849E+02	5.040000000E-03	0.000000000E+00	1.000000000E+00
	1	-1	0	0	501	0	0.000000000E+00	-0.000000000E+00	-1.179241218E+03	1.179241218E+03	2.550000000E-03	0.000000000E+00	-1.000000000E+00
	-24	1	1	2	0	0	8.029636660E+01	-6.014149326E+02	-3.663005583E+02	7.132288939E+02	7.982435975E+01	0.000000000E+00	1.000000000E+00
	9000005	1	1	2	0	0	-8.029636660E+01	6.014149326E+02	-4.955511752E+02	7.834018094E+02	1.000000000E-05	0.000000000E+00	0.000000000E+00

</event>
<event>
	6	1	3.267126300E-02	2.554362000E+03	7.818608000E-03	8.383871000E-02
	2	-1	0	0	501	0	0.000000000E+00	0.000000000E+00	1.265292619E+03	1.265292619E+03	2.550000000E-03	0.000000000E+00	-1.000000000E+00
	-1	-1	0	0	0	501	-0.000000000E+00	-0.000000000E+00	-1.289181495E+03	1.289181495E+03	5.040000000E-03	0.000000000E+00	1.000000000E+00
	24	2	1	2	0	0	-1.230836413E+03	-2.997296303E+02	-1.646070543E+02	1.279877028E+03	7.869941383E+01	0.000000000E+00	0.000000000E+00
	-11	1	3	3	0	0	-7.916197828E+02	-2.312942226E+02	-1.098282338E+02	8.319982805E+02	5.110000000E-04	0.000000000E+00	1.000000000E+00
	12	1	3	3	0	0	-4.392166300E+02	-6.843540777E+01	-5.477882051E+01	4.478787474E+02	0.000000000E+00	0.000000000E+00	-1.000000000E+00
	9000005	1	1	2	0	0	1.230836413E+03	2.997296303E+02	1.407181786E+02	1.274597086E+03	1.000000000E-05	0.000000000E+00	0.000000000E+00

</event>
<event>
	4	1	3.267126300E-02	1.443254000E+03	7.818608000E-03	8.923091000E-02
	-2	-1	0	0	0	501	-0.000000000E+00	0.000000000E+00	9.875674918E+02	9.875674918E+02	5.040000000E-03	0.000000000E+00	1.000000000E+00
	1	-1	0	0	501	0	0.000000000E+00	-0.000000000E+00	-5.273010367E+02	5.273010367E+02	2.550000000E-03	0.000000000E+00	-1.000000000E+00
	-24	1	1	2	0	0	-6.106521661E+02	-3.789393526E+02	2.652220170E+02	7.701985118E+02	7.982435975E+01	0.000000000E+00	1.000000000E+00
	9000005	1	1	2	0	0	6.106521661E+02	3.789393526E+02	1.950444382E+02	7.446700167E+02	1.000000000E-05	0.000000000E+00	0.000000000E+00

</event>
<event>
	6	1	3.267126300E-02	2.219549000E+03	7.818608000E-03	8.510335000E-02
	2	-1	0	0	501	0	0.000000000E+00	0.000000000E+00	1.922527084E+03	1.922527084E+03	2.550000000E-03	0.000000000E+00	-1.000000000E+00
	-1	-1	0	0	0	501	-0.000000000E+00	-0.000000000E+00	-6.406151137E+02	6.406151137E+02	5.040000000E-03	0.000000000E+00	1.000000000E+00
	24	2	1	2	0	0	-1.903857142E+02	7.482371988E+02	-2.765446603E+02	8.239203329E+02	7.913368510E+01	0.000000000E+00	0.000000000E+00
	-11	1	3	3	0	0	-1.828374676E+02	7.338592004E+02	-2.575803112E+02	7.989533668E+02	5.110000000E-04	0.000000000E+00	1.000000000E+00
	12	1	3	3	0	0	-7.548246664E+00	1.437799838E+01	-1.896434907E+01	2.496696619E+01	0.000000000E+00	0.000000000E+00	-1.000000000E+00
	9000005	1	1	2	0	0	1.903857142E+02	-7.482371988E+02	1.558456631E+03	1.739221865E+03	1.000000000E-05	0.000000000E+00	0.000000000E+00

</event>
<event>
	4	1	3.267126300E-02	1.565606000E+03	7.818608000E-03	8.841961000E-02
	-2	-1	0	0	0	501	-0.000000000E+00	0.000000000E+00	1.605342449E+03	1.605342449E+03	5.040000000E-03	0.000000000E+00	1.000000000E+00
	1	-1	0	0	501	0	0.000000000E+00	-0.000000000E+00	-3.817131243E+02	3.817131243E+02	2.550000000E-03	0.000000000E+00	-1.000000000E+00
	-24	1	1	2	0	0	-5.531156771E+02	2.680341485E+02	1.224491128E+03	1.372417469E+03	7.982435975E+01	0.000000000E+00	1.000000000E+00
	9000005	1	1	2	0	0	5.531156771E+02	-2.680341485E+02	-8.618035356E-01	6.146381046E+02	1.000000000E-05	0.000000000E+00	0.000000000E+00

</event>
<event>
	4	1	3.267126300E-02	2.546253000E+03	7.818608000E-03	8.386691000E-02
	-2	-1	0	0	0	501	-0.000000000E+00	0.000000000E+00	5.697639853E+02	5.697639853E+02	5.040000000E-03	0.000000000E+00	1.000000000E+00
	1	-1	0	0	501	0	0.000000000E+00	-0.000000000E+00	-2.844776185E+03	2.844776185E+03	2.550000000E-03	0.000000000E+00	-1.000000000E+00
	-24	1	1	2	0	0	1.737338390E+02	-7.211155034E+02	2.468859395E+02	7.858216156E+02	7.982435975E+01	0.000000000E+00	1.000000000E+00
	9000005	1	1	2	0	0	-1.737338390E+02	7.211155034E+02	-2.521898140E+03	2.628718555E+03	1.000000000E-05	0.000000000E+00	0.000000000E+00

</event>
<event>
	4	1	3.267126300E-02	1.395704000E+03	7.818608000E-03	8.956934000E-02
	-2	-1	0	0	0	501	-0.000000000E+00	0.000000000E+00	4.772147617E+02	4.772147617E+02	5.040000000E-03	0.000000000E+00	1.000000000E+00
	1	-1	0	0	501	0	0.000000000E+00	-0.000000000E+00	-1.020499242E+03	1.020499242E+03	2.550000000E-03	0.000000000E+00	-1.000000000E+00
	-24	1	1	2	0	0	5.937893764E+02	-1.536586777E+02	-6.245623324E+02	8.790033266E+02	7.982435975E+01	0.000000000E+00	-1.000000000E+00
	9000005	1	1	2	0	0	-5.937893764E+02	1.536586777E+02	8.127785212E+01	6.187106772E+02	1.000000000E-05	0.000000000E+00	0.000000000E+00

</event>
<event>
	4	1	3.267126300E-02	3.585613000E+03	7.818608000E-03	8.093795000E-02
	1	-1	0	0	501	0	0.000000000E+00	0.000000000E+00	2.341572366E+03	2.341572366E+03	5.040000000E-03	0.000000000E+00	-1.000000000E+00
	-2	-1	0	0	0	501	-0.000000000E+00	-0.000000000E+00	-1.372648576E+03	1.372648576E+03	2.550000000E-03	0.000000000E+00	1.000000000E+00
	-24	1	1	2	0	0	1.476989891E+03	-1.159928920E+02	1.528832588E+03	2.130411815E+03	7.982435975E+01	0.000000000E+00	-1.000000000E+00
	9000005	1	1	2	0	0	-1.476989891E+03	1.159928920E+02	-5.599087982E+02	1.583809127E+03	1.000000000E-05	0.000000000E+00	0.000000000E+00

</event>
<event>
	4	1	3.267126300E-02	1.991921000E+03	7.818608000E-03	8.610407000E-02
	1	-1	0	0	501	0	0.000000000E+00	0.000000000E+00	1.399156241E+03	1.399156241E+03	5.040000000E-03	0.000000000E+00	-1.000000000E+00
	-2	-1	0	0	0	501	-0.000000000E+00	-0.000000000E+00	-7.089538433E+02	7.089538433E+02	2.550000000E-03	0.000000000E+00	1.000000000E+00
	-24	1	1	2	0	0	9.238654004E+02	-1.721919812E+02	6.895336453E+02	1.168334684E+03	7.982435975E+01	0.000000000E+00	-1.000000000E+00
	9000005	1	1	2	0	0	-9.238654004E+02	1.721919812E+02	6.687523161E-01	9.397754006E+02	1.000000000E-05	0.000000000E+00	0.000000000E+00

</event>
<event>
	4	1	3.267126300E-02	2.161673000E+03	7.818608000E-03	8.534552000E-02
	-2	-1	0	0	0	501	-0.000000000E+00	0.000000000E+00	9.664237806E+02	9.664237806E+02	5.040000000E-03	0.000000000E+00	1.000000000E+00
	1	-1	0	0	501	0	0.000000000E+00	-0.000000000E+00	-1.208794208E+03	1.208794208E+03	2.550000000E-03	0.000000000E+00	-1.000000000E+00
	-24	1	1	2	0	0	9.412670419E+02	-7.558292656E+01	4.047325390E+02	1.030474056E+03	7.982435975E+01	0.000000000E+00	1.000000000E+00
	9000005	1	1	2	0	0	-9.412670419E+02	7.558292656E+01	-6.471029665E+02	1.144743933E+03	1.000000000E-05	0.000000000E+00	0.000000000E+00

</event>
<event>
	4	1	3.267126300E-02	1.623501000E+03	7.818608000E-03	8.806239000E-02
	1	-1	0	0	501	0	0.000000000E+00	0.000000000E+00	9.890005533E+02	9.890005533E+02	5.040000000E-03	0.000000000E+00	-1.000000000E+00
	-2	-1	0	0	0	501	-0.000000000E+00	-0.000000000E+00	-6.662677284E+02	6.662677284E+02	2.550000000E-03	0.000000000E+00	1.000000000E+00
	-24	1	1	2	0	0	5.360947353E+02	3.503772509E+02	6.670290914E+02	9.281495140E+02	7.982435975E+01	0.000000000E+00	-1.000000000E+00
	9000005	1	1	2	0	0	-5.360947353E+02	-3.503772509E+02	-3.442962665E+02	7.271187677E+02	1.000000000E-05	0.000000000E+00	0.000000000E+00

</event>
<event>
	4	1	3.267126300E-02	1.576020000E+03	7.818608000E-03	8.835417000E-02
	1	-1	0	0	501	0	0.000000000E+00	0.000000000E+00	2.067238008E+03	2.067238008E+03	5.040000000E-03	0.000000000E+00	-1.000000000E+00
	-2	-1	0	0	0	501	-0.000000000E+00	-0.000000000E+00	-3.003811723E+02	3.003811723E+02	2.550000000E-03	0.000000000E+00	1.000000000E+00
	-24	1	1	2	0	0	-1.937739195E+01	-6.723841515E+02	2.749091879E+02	7.310423521E+02	7.982435975E+01	0.000000000E+00	1.000000000E+00
	9000005	1	1	2	0	0	1.937739195E+01	6.723841515E+02	1.491947647E+03	1.636576828E+03	1.000000000E-05	0.000000000E+00	0.000000000E+00

</event>
<event>
	6	1	3.267126300E-02	2.089526000E+03	7.818608000E-03	8.565872000E-02
	-1	-1	0	0	0	501	-0.000000000E+00	0.000000000E+00	4.214115633E+02	4.214115634E+02	2.550000000E-03	0.000000000E+00	1.000000000E+00
	2	-1	0	0	501	0	0.000000000E+00	-0.000000000E+00	-2.590174061E+03	2.590174061E+03	5.040000000E-03	0.000000000E+00	-1.000000000E+00
	24	2	1	2	0	0	7.729420443E+02	-6.896194569E+02	-9.079186254E+02	1.379794685E+03	8.063959035E+01	0.000000000E+00	0.000000000E+00
	-11	1	3	3	0	0	7.621113541E+02	-6.812059843E+02	-8.804447459E+02	1.349087936E+03	5.110000000E-04	0.000000000E+00	1.000000000E+00
	12	1	3	3	0	0	1.083069028E+01	-8.413472546E+00	-2.747387957E+01	3.070674895E+01	0.000000000E+00	0.000000000E+00	-1.000000000E+00
	9000005	1	1	2	0	0	-7.729420443E+02	6.896194569E+02	-1.260843872E+03	1.631790939E+03	1.000000000E-05	0.000000000E+00	0.000000000E+00

</event>
<event>
	4	1	3.267126300E-02	1.439481000E+03	7.818608000E-03	8.925725000E-02
	1	-1	0	0	501	0	0.000000000E+00	0.000000000E+00	2.088122928E+03	2.088122928E+03	5.040000000E-03	0.000000000E+00	-1.000000000E+00
	-2	-1	0	0	0	501	-0.000000000E+00	-0.000000000E+00	-2.480824617E+02	2.480824617E+02	2.550000000E-03	0.000000000E+00	1.000000000E+00
	-24	1	1	2	0	0	-3.392132993E+02	-6.289451181E+02	1.028128483E+03	1.254614574E+03	7.982435975E+01	0.000000000E+00	-1.000000000E+00
	9000005	1	1	2	0	0	3.392132993E+02	6.289451181E+02	8.119119843E+02	1.081590816E+03	1.000000000E-05	0.000000000E+00	0.000000000E+00

</event>
<event>
	4	1	3.267126300E-02	1.397821000E+03	7.818608000E-03	8.955398000E-02
	1	-1	0	0	501	0	0.000000000E+00	0.000000000E+00	6.428129136E+02	6.428129136E+02	5.040000000E-03	0.000000000E+00	-1.000000000E+00
	-2	-1	0	0	0	501	-0.000000000E+00	-0.000000000E+00	-7.599032213E+02	7.599032213E+02	2.550000000E-03	0.000000000E+00	1.000000000E+00
	-24	1	1	2	0	0	-6.299088565E+02	-1.293037449E+02	2.101392582E+02	6.812011907E+02	7.982435975E+01	0.000000000E+00	-1.000000000E+00
	9000005	1	1	2	0	0	6.299088565E+02	1.293037449E+02	-3.272295659E+02	7.215149443E+02	1.000000000E-05	0.000000000E+00	0.000000000E+00

</event>
<event>
	4	1	3.267126300E-02	1.606265000E+03	7.818608000E-03	8.816709000E-02
	1	-1	0	0	501	0	0.000000000E+00	0.000000000E+00	3.941476038E+02	3.941476039E+02	5.040000000E-03	0.000000000E+00	-1.000000000E+00
	-2	-1	0	0	0	501	-0.000000000E+00	-0.000000000E+00	-1.636497395E+03	1.636497395E+03	2.550000000E-03	0.000000000E+00	1.000000000E+00
	-24	1	1	2	0	0	-4.626676059E+01	-7.980468159E+02	-5.555732045E+02	9.767562886E+02	7.982435975E+01	0.000000000E+00	-1.000000000E+00
	9000005	1	1	2	0	0	4.626676059E+01	7.980468159E+02	-6.867765865E+02	1.053888710E+03	1.000000000E-05	0.000000000E+00	0.000000000E+00

</event>
<event>
	4	1	3.267126300E-02	1.711345000E+03	7.818608000E-03	8.754920000E-02
	1	-1	0	0	501	0	0.000000000E+00	0.000000000E+00	1.536028508E+03	1.536028508E+03	5.040000000E-03	0.000000000E+00	-1.000000000E+00
	-2	-1	0	0	0	501	-0.000000000E+00	-0.000000000E+00	-4.766680688E+02	4.766680688E+02	2.550000000E-03	0.000000000E+00	1.000000000E+00
	-24	1	1	2	0	0	8.170646883E+02	-2.238158721E+02	4.057849016E+02	9.427203001E+02	7.982435975E+01	0.000000000E+00	1.000000000E+00
	9000005	1	1	2	0	0	-8.170646883E+02	2.238158721E+02	6.535755379E+02	1.069976277E+03	1.000000000E-05	0.000000000E+00	0.000000000E+00

</event>
<event>
	4	1	3.267126300E-02	2.068201000E+03	7.818608000E-03	8.575382000E-02
	1	-1	0	0	501	0	0.000000000E+00	0.000000000E+00	1.011887823E+03	1.011887823E+03	5.040000000E-03	0.000000000E+00	-1.000000000E+00
	-2	-1	0	0	0	501	-0.000000000E+00	-0.000000000E+00	-1.056800845E+03	1.056800845E+03	2.550000000E-03	0.000000000E+00	1.000000000E+00
	-24	1	1	2	0	0	4.730130039E+02	9.103634313E+02	-1.394681096E+02	1.038424846E+03	7.982435975E+01	0.000000000E+00	1.000000000E+00
	9000005	1	1	2	0	0	-4.730130039E+02	-9.103634313E+02	9.455508734E+01	1.030263822E+03	1.000000000E-05	0.000000000E+00	0.000000000E+00

</event>
<event>
	4	1	3.267126300E-02	1.836479000E+03	7.818608000E-03	8.687137000E-02
	1	-1	0	0	501	0	0.000000000E+00	0.000000000E+00	1.224928665E+03	1.224928665E+03	5.040000000E-03	0.000000000E+00	-1.000000000E+00
	-2	-1	0	0	0	501	-0.000000000E+00	-0.000000000E+00	-6.883372564E+02	6.883372564E+02	2.550000000E-03	0.000000000E+00	1.000000000E+00
	-24	1	1	2	0	0	-8.540598967E+02	3.006072406E+02	1.207404099E+02	9.169150425E+02	7.982435975E+01	0.000000000E+00	1.000000000E+00
	9000005	1	1	2	0	0	8.540598967E+02	-3.006072406E+02	4.158509984E+02	9.963508785E+02	1.000000000E-05	0.000000000E+00	0.000000000E+00

</event>
<event>
	4	1	3.267126300E-02	1.281180000E+03	7.818608000E-03	9.044624000E-02
	1	-1	0	0	501	0	0.000000000E+00	0.000000000E+00	3.228668277E+02	3.228668277E+02	5.040000000E-03	0.000000000E+00	-1.000000000E+00
	-2	-1	0	0	0	501	-0.000000000E+00	-0.000000000E+00	-1.270975264E+03	1.270975264E+03	2.550000000E-03	0.000000000E+00	1.000000000E+00
	-24	1	1	2	0	0	-3.991100833E+02	-4.722330088E+02	-6.721343508E+02	9.167493589E+02	7.982435975E+01	0.000000000E+00	-1.000000000E+00
	9000005	1	1	2	0	0	3.991100833E+02	4.722330088E+02	-2.759740859E+02	6.770927331E+02	1.000000000E-05	0.000000000E+00	0.000000000E+00

</event>
<event>
	4	1	3.267126300E-02	1.509487000E+03	7.818608000E-03	8.878168000E-02
	-2	-1	0	0	0	501	-0.000000000E+00	0.000000000E+00	1.099783482E+03	1.099783482E+03	5.040000000E-03	0.000000000E+00	1.000000000E+00
	1	-1	0	0	501	0	0.000000000E+00	-0.000000000E+00	-5.179547663E+02	5.179547663E+02	2.550000000E-03	0.000000000E+00	-1.000000000E+00
	-24	1	1	2	0	0	6.494044481E+02	1.158358375E+02	6.800854818E+02	9.508061156E+02	7.982435975E+01	0.000000000E+00	1.000000000E+00
	9000005	1	1	2	0	0	-6.494044481E+02	-1.158358375E+02	-9.825676554E+01	6.669321333E+02	1.000000000E-05	0.000000000E+00	0.000000000E+00

</event>
<event>
	4	1	3.267126300E-02	2.030949000E+03	7.818608000E-03	8.592286000E-02
	-2	-1	0	0	0	501	-0.000000000E+00	0.000000000E+00	6.870481450E+02	6.870481450E+02	5.040000000E-03	0.000000000E+00	1.000000000E+00
	1	-1	0	0	501	0	0.000000000E+00	-0.000000000E+00	-1.500896414E+03	1.500896414E+03	2.550000000E-03	0.000000000E+00	-1.000000000E+00
	-24	1	1	2	0	0	8.159014179E+02	6.019151273E+02	-4.105323153E+02	1.096770557E+03	7.982435975E+01	0.000000000E+00	1.000000000E+00
	9000005	1	1	2	0	0	-8.159014179E+02	-6.019151273E+02	-4.033159536E+02	1.091174002E+03	1.000000000E-05	0.000000000E+00	0.000000000E+00

</event>
<event>
	4	1	3.267126300E-02	1.824833000E+03	7.818608000E-03	8.693204000E-02
	1	-1	0	0	501	0	0.000000000E+00	0.000000000E+00	2.215520296E+03	2.215520296E+03	5.040000000E-03	0.000000000E+00	-1.000000000E+00
	-2	-1	0	0	0	501	-0.000000000E+00	-0.000000000E+00	-3.757598166E+02	3.757598166E+02	2.550000000E-03	0.000000000E+00	1.000000000E+00
	-24	1	1	2	0	0	-6.505679071E+02	-5.574422273E+02	4.831811651E+02	9.868213644E+02	7.982435975E+01	0.000000000E+00	1.000000000E+00
	9000005	1	1	2	0	0	6.505679071E+02	5.574422273E+02	1.356579314E+03	1.604458748E+03	1.000000000E-05	0.000000000E+00	0.000000000E+00

</event>
<event>
	4	1	3.267126300E-02	1.683097000E+03	7.818608000E-03	8.771064000E-02
	-2	-1	0	0	0	501	-0.000000000E+00	0.000000000E+00	8.544056146E+02	8.544056146E+02	5.040000000E-03	0.000000000E+00	1.000000000E+00
	1	-1	0	0	501	0	0.000000000E+00	-0.000000000E+00	-8.288845028E+02	8.288845028E+02	2.550000000E-03	0.000000000E+00	-1.000000000E+00
	-24	1	1	2	0	0	-6.270484578E+00	6.717098232E+02	5.166207164E+02	8.511770078E+02	7.982435975E+01	0.000000000E+00	1.000000000E+00
	9000005	1	1	2	0	0	6.270484578E+00	-6.717098232E+02	-4.910996046E+02	8.321131096E+02	1.000000000E-05	0.000000000E+00	0.000000000E+00

</event>
<event>
	4	1	3.267126300E-02	1.485364000E+03	7.818608000E-03	8.894244000E-02
	1	-1	0	0	501	0	0.000000000E+00	0.000000000E+00	2.442697605E+03	2.442697605E+03	5.040000000E-03	0.000000000E+00	-1.000000000E+00
	-2	-1	0	0	0	501	-0.000000000E+00	-0.000000000E+00	-2.258063612E+02	2.258063612E+02	2.550000000E-03	0.000000000E+00	1.000000000E+00
	-24	1	1	2	0	0	5.936719073E+02	-4.316440131E+02	9.353265703E+02	1.191625197E+03	7.982435975E+01	0.000000000E+00	1.000000000E+00
	9000005	1	1	2	0	0	-5.936719073E+02	4.316440131E+02	1.281564673E+03	1.476878770E+03	1.000000000E-05	0.000000000E+00	0.000000000E+00

</event>
<event>
	4	1	3.267126300E-02	1.306048000E+03	7.818608000E-03	9.024783000E-02
	1	-1	0	0	501	0	0.000000000E+00	0.000000000E+00	2.571085421E+03	2.571085421E+03	5.040000000E-03	0.000000000E+00	-1.000000000E+00
	-2	-1	0	0	0	501	-0.000000000E+00	-0.000000000E+00	-1.658600283E+02	1.658600284E+02	2.550000000E-03	0.000000000E+00	1.000000000E+00
	-24	1	1	2	0	0	-1.076196726E+02	6.361389713E+02	1.031706275E+03	1.219444361E+03	7.982435975E+01	0.000000000E+00	-1.000000000E+00
	9000005	1	1	2	0	0	1.076196726E+02	-6.361389713E+02	1.373519118E+03	1.517501088E+03	1.000000000E-05	0.000000000E+00	0.000000000E+00

</event>
<event>
	4	1	3.267126300E-02	3.770677000E+03	7.818608000E-03	8.052477000E-02
	1	-1	0	0	501	0	0.000000000E+00	0.000000000E+00	2.848124588E+03	2.848124588E+03	5.040000000E-03	0.000000000E+00	-1.000000000E+00
	-2	-1	0	0	0	501	-0.000000000E+00	-0.000000000E+00	-1.248014933E+03	1.248014933E+03	2.550000000E-03	0.000000000E+00	1.000000000E+00
	-24	1	1	2	0	0	-5.513016931E+02	-7.469190736E+02	-9.811067837E+02	1.353057319E+03	7.982435975E+01	0.000000000E+00	1.000000000E+00
	9000005	1	1	2	0	0	5.513016931E+02	7.469190736E+02	2.581216439E+03	2.743082202E+03	1.000000000E-05	0.000000000E+00	0.000000000E+00

</event>
<event>
	4	1	3.267126300E-02	1.293304000E+03	7.818608000E-03	9.034892000E-02
	-2	-1	0	0	0	501	-0.000000000E+00	0.000000000E+00	1.940928074E+02	1.940928075E+02	5.040000000E-03	0.000000000E+00	1.000000000E+00
	1	-1	0	0	501	0	0.000000000E+00	-0.000000000E+00	-2.154425709E+03	2.154425709E+03	2.550000000E-03	0.000000000E+00	-1.000000000E+00
	-24	1	1	2	0	0	-8.252394988E+01	-6.140964603E+02	-6.638988474E+02	9.116239756E+02	7.982435975E+01	0.000000000E+00	-1.000000000E+00
	9000005	1	1	2	0	0	8.252394988E+01	6.140964603E+02	-1.296434055E+03	1.436894541E+03	1.000000000E-05	0.000000000E+00	0.000000000E+00

</event>
<event>
	4	1	3.267126300E-02	1.268615000E+03	7.818608000E-03	9.054831000E-02
	-2	-1	0	0	0	501	-0.000000000E+00	0.000000000E+00	2.642737636E+02	2.642737636E+02	5.040000000E-03	0.000000000E+00	1.000000000E+00
	1	-1	0	0	501	0	0.000000000E+00	-0.000000000E+00	-1.522458607E+03	1.522458607E+03	2.550000000E-03	0.000000000E+00	-1.000000000E+00
	-24	1	1	2	0	0	-5.374376516E+02	3.320596719E+02	-6.203728792E+02	8.890091635E+02	7.982435975E+01	0.000000000E+00	-1.000000000E+00
	9000005	1	1	2	0	0	5.374376516E+02	-3.320596719E+02	-6.378119643E+02	8.977232073E+02	1.000000000E-05	0.000000000E+00	0.000000000E+00

</event>
<event>
	4	1	3.267126300E-02	2.744525000E+03	7.818608000E-03	8.320701000E-02
	1	-1	0	0	501	0	0.000000000E+00	0.000000000E+00	1.607154974E+03	1.607154974E+03	5.040000000E-03	0.000000000E+00	-1.000000000E+00
	-2	-1	0	0	0	501	-0.000000000E+00	-0.000000000E+00	-1.171700286E+03	1.171700286E+03	2.550000000E-03	0.000000000E+00	1.000000000E+00
	-24	1	1	2	0	0	-1.015549253E+03	-7.951630011E+02	6.888041289E+02	1.464393233E+03	7.982435975E+01	0.000000000E+00	-1.000000000E+00
	9000005	1	1	2	0	0	1.015549253E+03	7.951630011E+02	-2.533494405E+02	1.314462028E+03	1.000000000E-05	0.000000000E+00	0.000000000E+00

</event>
<event>
	4	1	3.267126300E-02	1.561590000E+03	7.818608000E-03	8.844498000E-02
	1	-1	0	0	501	0	0.000000000E+00	0.000000000E+00	1.842239447E+03	1.842239447E+03	5.040000000E-03	0.000000000E+00	-1.000000000E+00
	-2	-1	0	0	0	501	-0.000000000E+00	-0.000000000E+00	-3.309237833E+02	3.309237833E+02	2.550000000E-03	0.000000000E+00	1.000000000E+00
	-24	1	1	2	0	0	2.835105669E+02	-6.078671255E+02	2.069626344E+02	7.064602921E+02	7.982435975E+01	0.000000000E+00	1.000000000E+00
	9000005	1	1	2	0	0	-2.835105669E+02	6.078671255E+02	1.304353029E+03	1.466702938E+03	1.000000000E-05	0.000000000E+00	0.000000000E+00

</event>
<event>
	6	1	3.267126300E-02	1.593526000E+03	7.818608000E-03	8.824535000E-02
	2	-1	0	0	501	0	0.000000000E+00	0.000000000E+00	1.932492801E+03	1.932492801E+03	2.550000000E-03	0.000000000E+00	-1.000000000E+00
	-1	-1	0	0	0	501	-0.000000000E+00	-0.000000000E+00	-3.285039539E+02	3.285039539E+02	5.040000000E-03	0.000000000E+00	1.000000000E+00
	24	2	1	2	0	0	-1.022082785E+02	7.858776809E+02	7.217136031E+02	1.075054148E+03	8.258712898E+01	0.000000000E+00	0.000000000E+00
	-11	1	3	3	0	0	-7.731067678E+01	6.398945012E+02	5.416768709E+02	8.419357137E+02	5.110000000E-04	0.000000000E+00	1.000000000E+00
	12	1	3	3	0	0	-2.489760170E+01	1.459831797E+02	1.800367322E+02	2.331184340E+02	0.000000000E+00	0.000000000E+00	-1.000000000E+00
	9000005	1	1	2	0	0	1.022082785E+02	-7.858776809E+02	8.822752440E+02	1.185942607E+03	1.000000000E-05	0.000000000E+00	0.000000000E+00

</event>
<event>
	4	1	3.267126300E-02	1.990118000E+03	7.818608000E-03	8.611255000E-02
	-2	-1	0	0	0	501	-0.000000000E+00	0.000000000E+00	5.149021663E+02	5.149021663E+02	5.040000000E-03	0.000000000E+00	1.000000000E+00
	1	-1	0	0	501	0	0.000000000E+00	-0.000000000E+00	-1.922972883E+03	1.922972883E+03	2.550000000E-03	0.000000000E+00	-1.000000000E+00
	-24	1	1	2	0	0	-7.539145840E+02	-6.273195093E+02	-5.113154278E+02	1.108932983E+03	7.982435975E+01	0.000000000E+00	1.000000000E+00
	9000005	1	1	2	0	0	7.539145840E+02	6.273195093E+02	-8.967552890E+02	1.328942066E+03	1.000000000E-05	0.000000000E+00	0.000000000E+00

</event>
<event>
	4	1	3.267126300E-02	1.823837000E+03	7.818608000E-03	8.693725000E-02
	1	-1	0	0	501	0	0.000000000E+00	0.000000000E+00	1.559841590E+03	1.559841590E+03	5.040000000E-03	0.000000000E+00	-1.000000000E+00
	-2	-1	0	0	0	501	-0.000000000E+00	-0.000000000E+00	-5.331280267E+02	5.331280267E+02	2.550000000E-03	0.000000000E+00	1.000000000E+00
	-24	1	1	2	0	0	-2.459835542E+01	-6.809496244E+02	1.206802465E+03	1.388179235E+03	7.982435975E+01	0.000000000E+00	-1.000000000E+00
	9000005	1	1	2	0	0	2.459835542E+01	6.809496244E+02	-1.800889016E+02	7.047903820E+02	1.000000000E-05	0.000000000E+00	0.000000000E+00

</event>
<event>
	4	1	3.267126300E-02	1.563171000E+03	7.818608000E-03	8.843498000E-02
	1	-1	0	0	501	0	0.000000000E+00	0.000000000E+00	1.225666068E+03	1.225666068E+03	5.040000000E-03	0.000000000E+00	-1.000000000E+00
	-2	-1	0	0	0	501	-0.000000000E+00	-0.000000000E+00	-4.984032583E+02	4.984032583E+02	2.550000000E-03	0.000000000E+00	1.000000000E+00
	-24	1	1	2	0	0	5.072494671E+01	-6.778766824E+02	-5.627813693E+01	6.867524837E+02	7.982435975E+01	0.000000000E+00	1.000000000E+00
	9000005	1	1	2	0	0	-5.072494671E+01	6.778766824E+02	7.835409467E+02	1.037316843E+03	1.000000000E-05	0.000000000E+00	0.000000000E+00

</event>
<event>
	6	1	3.267126300E-02	1.908281000E+03	7.818608000E-03	8.650745000E-02
	-1	-1	0	0	0	501	-0.000000000E+00	0.000000000E+00	2.518354746E+02	2.518354747E+02	2.550000000E-03	0.000000000E+00	1.000000000E+00
	2	-1	0	0	501	0	0.000000000E+00	-0.000000000E+00	-3.614996140E+03	3.614996140E+03	5.040000000E-03	0.000000000E+00	-1.000000000E+00
	24	2	1	2	0	0	-7.418540923E+02	5.765828316E+02	-1.368614481E+03	1.662061845E+03	8.092418117E+01	0.000000000E+00	0.000000000E+00
	-11	1	3	3	0	0	-7.235181892E+02	5.425857195E+02	-1.308826966E+03	1.590882102E+03	5.110000000E-04	0.000000000E+00	1.000000000E+00
	12	1	3	3	0	0	-1.833590303E+01	3.399711213E+01	-5.978751433E+01	7.117974321E+01	0.000000000E+00	0.000000000E+00	-1.000000000E+00
	9000005	1	1	2	0	0	7.418540923E+02	-5.765828316E+02	-1.994546185E+03	2.204769771E+03	1.000000000E-05	0.000000000E+00	0.000000000E+00

</event>
<event>
	4	1	3.267126300E-02	1.512647000E+03	7.818608000E-03	8.876086000E-02
	1	-1	0	0	501	0	0.000000000E+00	0.000000000E+00	2.235316646E+02	2.235316647E+02	5.040000000E-03	0.000000000E+00	-1.000000000E+00
	-2	-1	0	0	0	501	-0.000000000E+00	-0.000000000E+00	-2.559034031E+03	2.559034031E+03	2.550000000E-03	0.000000000E+00	1.000000000E+00
	-24	1	1	2	0	0	-6.003690853E+02	-1.941066790E+02	-4.109322526E+02	7.572038603E+02	7.982435975E+01	0.000000000E+00	-1.000000000E+00
	9000005	1	1	2	0	0	6.003690853E+02	1.941066790E+02	-1.924570113E+03	2.025361835E+03	1.000000000E-05	0.000000000E+00	0.000000000E+00

</event>
<event>
	4	1	3.267126300E-02	2.520673000E+03	7.818608000E-03	8.395657000E-02
	1	-1	0	0	501	0	0.000000000E+00	0.000000000E+00	2.792101422E+03	2.792101422E+03	5.040000000E-03	0.000000000E+00	-1.000000000E+00
	-2	-1	0	0	0	501	-0.000000000E+00	-0.000000000E+00	-5.689077880E+02	5.689077880E+02	2.550000000E-03	0.000000000E+00	1.000000000E+00
	-24	1	1	2	0	0	1.182878633E+03	-4.302092069E+02	1.070926529E+03	1.654550508E+03	7.982435975E+01	0.000000000E+00	1.000000000E+00
	9000005	1	1	2	0	0	-1.182878633E+03	4.302092069E+02	1.152267105E+03	1.706458703E+03	1.000000000E-05	0.000000000E+00	0.000000000E+00

</event>
<event>
	4	1	3.267126300E-02	2.834810000E+03	7.818608000E-03	8.292542000E-02
	-2	-1	0	0	0	501	-0.000000000E+00	0.000000000E+00	1.975655227E+03	1.975655227E+03	5.040000000E-03	0.000000000E+00	1.000000000E+00
	1	-1	0	0	501	0	0.000000000E+00	-0.000000000E+00	-1.016896812E+03	1.016896812E+03	2.550000000E-03	0.000000000E+00	-1.000000000E+00
	-24	1	1	2	0	0	-9.162547581E+02	-8.985844670E+02	1.112156436E+03	1.700070790E+03	7.982435975E+01	0.000000000E+00	1.000000000E+00
	9000005	1	1	2	0	0	9.162547581E+02	8.985844670E+02	-1.533980204E+02	1.292481249E+03	1.000000000E-05	0.000000000E+00	0.000000000E+00

</event>
<event>
	4	1	3.267126300E-02	1.754690000E+03	7.818608000E-03	8.730773000E-02
	1	-1	0	0	501	0	0.000000000E+00	0.000000000E+00	1.152764529E+03	1.152764529E+03	5.040000000E-03	0.000000000E+00	-1.000000000E+00
	-2	-1	0	0	0	501	-0.000000000E+00	-0.000000000E+00	-6.677290131E+02	6.677290131E+02	2.550000000E-03	0.000000000E+00	1.000000000E+00
	-24	1	1	2	0	0	-2.275297000E+02	8.453996299E+02	2.523776293E+02	9.146237996E+02	7.982435975E+01	0.000000000E+00	1.000000000E+00
	9000005	1	1	2	0	0	2.275297000E+02	-8.453996299E+02	2.326578870E+02	9.058697429E+02	1.000000000E-05	0.000000000E+00	0.000000000E+00

</event>
<event>
	4	1	3.267126300E-02	1.830573000E+03	7.818608000E-03	8.690208000E-02
	-2	-1	0	0	0	501	-0.000000000E+00	0.000000000E+00	9.867691430E+02	9.867691430E+02	5.040000000E-03	0.000000000E+00	1.000000000E+00
	1	-1	0	0	501	0	0.000000000E+00	-0.000000000E+00	-8.489823046E+02	8.489823046E+02	2.550000000E-03	0.000000000E+00	-1.000000000E+00
	-24	1	1	2	0	0	7.534560609E+02	-4.147090339E+02	-2.398842611E+02	8.964351654E+02	7.982435975E+01	0.000000000E+00	-1.000000000E+00
	9000005	1	1	2	0	0	-7.534560609E+02	4.147090339E+02	3.776710995E+02	9.393162822E+02	1.000000000E-05	0.000000000E+00	0.000000000E+00

</event>
<event>
	4	1	3.267126300E-02	1.654176000E+03	7.818608000E-03	8.787940000E-02
	-2	-1	0	0	0	501	-0.000000000E+00	0.000000000E+00	1.543065887E+03	1.543065887E+03	5.040000000E-03	0.000000000E+00	1.000000000E+00
	1	-1	0	0	501	0	0.000000000E+00	-0.000000000E+00	-4.433215397E+02	4.433215398E+02	2.550000000E-03	0.000000000E+00	-1.000000000E+00
	-24	1	1	2	0	0	4.019839626E+02	-5.306259162E+02	1.136657915E+03	1.319665910E+03	7.982435975E+01	0.000000000E+00	1.000000000E+00
	9000005	1	1	2	0	0	-4.019839626E+02	5.306259162E+02	-3.691356829E+01	6.667215166E+02	1.000000000E-05	0.000000000E+00	0.000000000E+00

</event>
<event>
	4	1	3.267126300E-02	1.345534000E+03	7.818608000E-03	8.994216000E-02
	1	-1	0	0	501	0	0.000000000E+00	0.000000000E+00	1.679771565E+03	1.679771565E+03	5.040000000E-03	0.000000000E+00	-1.000000000E+00
	-2	-1	0	0	0	501	-0.000000000E+00	-0.000000000E+00	-2.694505250E+02	2.694505250E+02	2.550000000E-03	0.000000000E+00	1.000000000E+00
	-24	1	1	2	0	0	5.805516570E+02	3.340110270E+02	6.658721496E+02	9.478192025E+02	7.982435975E+01	0.000000000E+00	1.000000000E+00
	9000005	1	1	2	0	0	-5.805516570E+02	-3.340110270E+02	7.444488904E+02	1.001402888E+03	1.000000000E-05	0.000000000E+00	0.000000000E+00

</event>
<event>
	4	1	3.267126300E-02	1.500867000E+03	7.818608000E-03	8.883877000E-02
	1	-1	0	0	501	0	0.000000000E+00	0.000000000E+00	5.052420378E+02	5.052420378E+02	5.040000000E-03	0.000000000E+00	-1.000000000E+00
	-2	-1	0	0	0	501	-0.000000000E+00	-0.000000000E+00	-1.114615106E+03	1.114615106E+03	2.550000000E-03	0.000000000E+00	1.000000000E+00
	-24	1	1	2	0	0	-5.790605585E+02	-2.490521282E+02	-7.407956072E+02	9.759549954E+02	7.982435975E+01	0.000000000E+00	1.000000000E+00
	9000005	1	1	2	0	0	5.790605585E+02	2.490521282E+02	1.314225390E+02	6.439021484E+02	1.000000000E-05	0.000000000E+00	0.000000000E+00

</event>
<event>
	4	1	3.267126300E-02	1.725057000E+03	7.818608000E-03	8.747201000E-02
	-4	-1	0	0	0	501	-0.000000000E+00	0.000000000E+00	9.221050438E+02	9.221059184E+02	5.040000000E-03	0.000000000E+00	1.000000000E+00
	1	-1	0	0	501	0	0.000000000E+00	-0.000000000E+00	-8.068007839E+02	8.068007840E+02	1.270000000E+00	0.000000000E+00	-1.000000000E+00
	-24	1	1	2	0	0	-7.991269025E+02	2.186961046E+02	-1.758571773E+02	8.507229089E+02	7.982435975E+01	0.000000000E+00	1.000000000E+00
	9000005	1	1	2	0	0	7.991269025E+02	-2.186961046E+02	2.911614371E+02	8.781837934E+02	1.000000000E-05	0.000000000E+00	0.000000000E+00

</event>
<event>
	4	1	3.267126300E-02	1.632358000E+03	7.818608000E-03	8.800912000E-02
	-2	-1	0	0	0	501	-0.000000000E+00	0.000000000E+00	3.610335425E+02	3.610335425E+02	5.040000000E-03	0.000000000E+00	1.000000000E+00
	1	-1	0	0	501	0	0.000000000E+00	-0.000000000E+00	-1.845115303E+03	1.845115303E+03	2.550000000E-03	0.000000000E+00	-1.000000000E+00
	-24	1	1	2	0	0	-4.024816845E+02	6.861950633E+02	-9.783371527E+02	1.263475637E+03	7.982435975E+01	0.000000000E+00	-1.000000000E+00
	9000005	1	1	2	0	0	4.024816845E+02	-6.861950633E+02	-5.057446083E+02	9.426732096E+02	1.000000000E-05	0.000000000E+00	0.000000000E+00

</event>
<event>
	6	1	3.267126300E-02	2.006105000E+03	7.818608000E-03	8.603772000E-02
	-1	-1	0	0	0	501	-0.000000000E+00	0.000000000E+00	7.967192801E+02	7.967192801E+02	2.550000000E-03	0.000000000E+00	1.000000000E+00
	2	-1	0	0	501	0	0.000000000E+00	-0.000000000E+00	-1.262821701E+03	1.262821701E+03	5.040000000E-03	0.000000000E+00	-1.000000000E+00
	24	2	1	2	0	0	-9.892635853E+02	-1.344663564E+02	-1.528295379E+02	1.013183709E+03	8.037859114E+01	0.000000000E+00	0.000000000E+00
	-11	1	3	3	0	0	-9.596235307E+02	-1.179665122E+02	-1.549932082E+02	9.791916633E+02	5.110000000E-04	0.000000000E+00	1.000000000E+00
	12	1	3	3	0	0	-2.964005450E+01	-1.649984417E+01	2.163670305E+00	3.399204551E+01	0.000000000E+00	0.000000000E+00	-1.000000000E+00
	9000005	1	1	2	0	0	9.892635853E+02	1.344663564E+02	-3.132728830E+02	1.046357272E+03	1.000000000E-05	0.000000000E+00	0.000000000E+00

</event>
<event>
	4	1	3.267126300E-02	1.498858000E+03	7.818608000E-03	8.885212000E-02
	1	-1	0	0	501	0	0.000000000E+00	0.000000000E+00	4.127742769E+02	4.127742769E+02	5.040000000E-03	0.000000000E+00	-1.000000000E+00
	-2	-1	0	0	0	501	-0.000000000E+00	-0.000000000E+00	-1.360656732E+03	1.360656732E+03	2.550000000E-03	0.000000000E+00	1.000000000E+00
	-24	1	1	2	0	0	-3.895262808E+02	-6.311691742E+02	-5.834511111E+02	9.470440208E+02	7.982435975E+01	0.000000000E+00	1.000000000E+00
	9000005	1	1	2	0	0	3.895262808E+02	6.311691742E+02	-3.644313443E+02	8.263869884E+02	1.000000000E-05	0.000000000E+00	0.000000000E+00

</event>
<event>
	4	1	3.267126300E-02	1.890085000E+03	7.818608000E-03	8.659807000E-02
	1	-1	0	0	501	0	0.000000000E+00	0.000000000E+00	1.406009145E+03	1.406009145E+03	5.040000000E-03	0.000000000E+00	-1.000000000E+00
	-2	-1	0	0	0	501	-0.000000000E+00	-0.000000000E+00	-6.352059208E+02	6.352059208E+02	2.550000000E-03	0.000000000E+00	1.000000000E+00
	-24	1	1	2	0	0	-5.331542299E+02	4.981186217E+02	1.031852934E+03	1.266281169E+03	7.982435975E+01	0.000000000E+00	-1.000000000E+00
	9000005	1	1	2	0	0	5.331542299E+02	-4.981186217E+02	-2.610497092E+02	7.749338970E+02	1.000000000E-05	0.000000000E+00	0.000000000E+00

</event>
<event>
	4	1	3.267126300E-02	1.721232000E+03	7.818608000E-03	8.749347000E-02
	-2	-1	0	0	0	501	-0.000000000E+00	0.000000000E+00	2.764231724E+02	2.764231724E+02	5.040000000E-03	0.000000000E+00	1.000000000E+00
	1	-1	0	0	501	0	0.000000000E+00	-0.000000000E+00	-2.679441810E+03	2.679441810E+03	2.550000000E-03	0.000000000E+00	-1.000000000E+00
	-24	1	1	2	0	0	6.021064983E+02	4.956806210E+01	-2.252190229E+03	2.333178515E+03	7.982435975E+01	0.000000000E+00	-1.000000000E+00
	9000005	1	1	2	0	0	-6.021064983E+02	-4.956806210E+01	-1.508284092E+02	6.226864678E+02	1.000000000E-05	0.000000000E+00	0.000000000E+00

</event>
<event>
	4	1	3.267126300E-02	1.877732000E+03	7.818608000E-03	8.666020000E-02
	-2	-1	0	0	0	501	-0.000000000E+00	0.000000000E+00	2.530311490E+02	2.530311490E+02	5.040000000E-03	0.000000000E+00	1.000000000E+00
	1	-1	0	0	501	0	0.000000000E+00	-0.000000000E+00	-3.483640920E+03	3.483640920E+03	2.550000000E-03	0.000000000E+00	-1.000000000E+00
	-24	1	1	2	0	0	1.856722636E+01	7.209808932E+02	-4.273367041E+02	8.421085306E+02	7.982435975E+01	0.000000000E+00	1.000000000E+00
	9000005	1	1	2	0	0	-1.856722636E+01	-7.209808932E+02	-2.803273067E+03	2.894563539E+03	1.000000000E-05	0.000000000E+00	0.000000000E+00

</event>
<event>
	6	1	3.267126300E-02	2.872952000E+03	7.818608000E-03	8.280971000E-02
	-1	-1	0	0	0	501	-0.000000000E+00	0.000000000E+00	8.304076747E+02	8.304076747E+02	2.550000000E-03	0.000000000E+00	1.000000000E+00
	2	-1	0	0	501	0	0.000000000E+00	-0.000000000E+00	-2.484880462E+03	2.484880462E+03	5.040000000E-03	0.000000000E+00	-1.000000000E+00
	24	2	1	2	0	0	-4.743718513E+02	-1.099753449E+03	8.504025108E+01	1.203324143E+03	7.918866584E+01	0.000000000E+00	0.000000000E+00
	-11	1	3	3	0	0	-2.239221948E+02	-5.708297382E+02	7.746878654E+01	6.180527099E+02	5.110000000E-04	0.000000000E+00	1.000000000E+00
	12	1	3	3	0	0	-2.504496564E+02	-5.289237112E+02	7.571464540E+00	5.852714326E+02	0.000000000E+00	0.000000000E+00	-1.000000000E+00
	9000005	1	1	2	0	0	4.743718513E+02	1.099753449E+03	-1.739513039E+03	2.111963994E+03	1.000000000E-05	0.000000000E+00	0.000000000E+00

</event>
<event>
	4	1	3.267126300E-02	1.881718000E+03	7.818608000E-03	8.664010000E-02
	-2	-1	0	0	0	501	-0.000000000E+00	0.000000000E+00	3.190819012E+02	3.190819012E+02	5.040000000E-03	0.000000000E+00	1.000000000E+00
	1	-1	0	0	501	0	0.000000000E+00	-0.000000000E+00	-2.774258882E+03	2.774258882E+03	2.550000000E-03	0.000000000E+00	-1.000000000E+00
	-24	1	1	2	0	0	4.628176145E+02	-7.489322198E+02	-6.922347389E+02	1.122791377E+03	7.982435975E+01	0.000000000E+00	1.000000000E+00
	9000005	1	1	2	0	0	-4.628176145E+02	7.489322198E+02	-1.762942242E+03	1.970549406E+03	1.000000000E-05	0.000000000E+00	0.000000000E+00

</event>
<event>
	4	1	3.267126300E-02	2.137564000E+03	7.818608000E-03	8.544875000E-02
	-2	-1	0	0	0	501	-0.000000000E+00	0.000000000E+00	4.737584226E+02	4.737584226E+02	5.040000000E-03	0.000000000E+00	1.000000000E+00
	1	-1	0	0	501	0	0.000000000E+00	-0.000000000E+00	-2.411132739E+03	2.411132739E+03	2.550000000E-03	0.000000000E+00	-1.000000000E+00
	-24	1	1	2	0	0	3.538081236E+02	7.274760852E+02	-1.909655269E+03	2.075465446E+03	7.982435975E+01	0.000000000E+00	-1.000000000E+00
	9000005	1	1	2	0	0	-3.538081236E+02	-7.274760852E+02	-2.771904690E+01	8.094257151E+02	1.000000000E-05	0.000000000E+00	0.000000000E+00

</event>
<event>
	4	1	3.267126300E-02	2.314927000E+03	7.818608000E-03	8.472059000E-02
	-2	-1	0	0	0	501	-0.000000000E+00	0.000000000E+00	1.793375235E+03	1.793375235E+03	5.040000000E-03	0.000000000E+00	1.000000000E+00
	1	-1	0	0	501	0	0.000000000E+00	-0.000000000E+00	-7.470393903E+02	7.470393904E+02	2.550000000E-03	0.000000000E+00	-1.000000000E+00
	-24	1	1	2	0	0	-4.793730714E+02	9.777461403E+02	9.770272935E+01	1.096222518E+03	7.982435975E+01	0.000000000E+00	1.000000000E+00
	9000005	1	1	2	0	0	4.793730714E+02	-9.777461403E+02	9.486331152E+02	1.444192108E+03	1.000000000E-05	0.000000000E+00	0.000000000E+00

</event>
<event>
	4	1	3.267126300E-02	2.219265000E+03	7.818608000E-03	8.510452000E-02
	-2	-1	0	0	0	501	-0.000000000E+00	0.000000000E+00	9.854134590E+02	9.854134590E+02	5.040000000E-03	0.000000000E+00	1.000000000E+00
	1	-1	0	0	501	0	0.000000000E+00	-0.000000000E+00	-1.249510360E+03	1.249510360E+03	2.550000000E-03	0.000000000E+00	-1.000000000E+00
	-24	1	1	2	0	0	-3.984961950E+01	-8.121565108E+02	-8.904689646E+02	1.208508624E+03	7.982435975E+01	0.000000000E+00	-1.000000000E+00
	9000005	1	1	2	0	0	3.984961950E+01	8.121565108E+02	6.263720633E+02	1.026415195E+03	1.000000000E-05	0.000000000E+00	0.000000000E+00

</event>
<event>
	4	1	3.267126300E-02	1.769465000E+03	7.818608000E-03	8.722708000E-02
	1	-1	0	0	501	0	0.000000000E+00	0.000000000E+00	1.351282249E+03	1.351282249E+03	5.040000000E-03	0.000000000E+00	-1.000000000E+00
	-2	-1	0	0	0	501	-0.000000000E+00	-0.000000000E+00	-5.792656274E+02	5.792656274E+02	2.550000000E-03	0.000000000E+00	1.000000000E+00
	-24	1	1	2	0	0	-6.415787325E+02	-4.814802213E+02	-1.574060200E+01	8.062668097E+02	7.982435975E+01	0.000000000E+00	1.000000000E+00
	9000005	1	1	2	0	0	6.415787325E+02	4.814802213E+02	7.877572234E+02	1.124281067E+03	1.000000000E-05	0.000000000E+00	0.000000000E+00

</event>
<event>
	4	1	3.267126300E-02	1.505731000E+03	7.818608000E-03	8.880651000E-02
	-2	-1	0	0	0	501	-0.000000000E+00	0.000000000E+00	3.100752319E+02	3.100752319E+02	5.040000000E-03	0.000000000E+00	1.000000000E+00
	1	-1	0	0	501	0	0.000000000E+00	-0.000000000E+00	-1.827963136E+03	1.827963136E+03	2.550000000E-03	0.000000000E+00	-1.000000000E+00
	-24	1	1	2	0	0	-6.656912559E+02	-3.435130890E+02	-6.903859377E+02	1.021836955E+03	7.982435975E+01	0.000000000E+00	-1.000000000E+00
	9000005	1	1	2	0	0	6.656912559E+02	3.435130890E+02	-8.275019667E+02	1.116201413E+03	1.000000000E-05	0.000000000E+00	0.000000000E+00

</event>
<event>
	4	1	3.267126300E-02	2.764157000E+03	7.818608000E-03	8.314483000E-02
	1	-1	0	0	501	0	0.000000000E+00	0.000000000E+00	1.446793431E+03	1.446793431E+03	5.040000000E-03	0.000000000E+00	-1.000000000E+00
	-2	-1	0	0	0	501	-0.000000000E+00	-0.000000000E+00	-1.320258718E+03	1.320258718E+03	2.550000000E-03	0.000000000E+00	1.000000000E+00
	-24	1	1	2	0	0	-1.171884857E+03	-1.413094928E+01	7.944569392E+02	1.418114085E+03	7.982435975E+01	0.000000000E+00	-1.000000000E+00
	9000005	1	1	2	0	0	1.171884857E+03	1.413094928E+01	-6.679222265E+02	1.348938065E+03	1.000000000E-05	0.000000000E+00	0.000000000E+00

</event>
<event>
	4	1	3.267126300E-02	1.325922000E+03	7.818608000E-03	9.009258000E-02
	-2	-1	0	0	0	501	-0.000000000E+00	0.000000000E+00	1.219481646E+03	1.219481646E+03	5.040000000E-03	0.000000000E+00	1.000000000E+00
	1	-1	0	0	501	0	0.000000000E+00	-0.000000000E+00	-3.604129495E+02	3.604129495E+02	2.550000000E-03	0.000000000E+00	-1.000000000E+00
	-24	1	1	2	0	0	-5.967810758E+02	2.716638289E+02	3.358577525E+02	7.410271565E+02	7.982435975E+01	0.000000000E+00	-1.000000000E+00
	9000005	1	1	2	0	0	5.967810758E+02	-2.716638289E+02	5.232109443E+02	8.388674392E+02	1.000000000E-05	0.000000000E+00	0.000000000E+00

</event>
<event>
	4	1	3.267126300E-02	1.351336000E+03	7.818608000E-03	8.989817000E-02
	1	-1	0	0	501	0	0.000000000E+00	0.000000000E+00	1.169812470E+03	1.169812470E+03	5.040000000E-03	0.000000000E+00	-1.000000000E+00
	-2	-1	0	0	0	501	-0.000000000E+00	-0.000000000E+00	-3.902569922E+02	3.902569922E+02	2.550000000E-03	0.000000000E+00	1.000000000E+00
	-24	1	1	2	0	0	6.513740823E+02	1.696046498E+02	3.713712349E+02	7.728793275E+02	7.982435975E+01	0.000000000E+00	1.000000000E+00
	9000005	1	1	2	0	0	-6.513740823E+02	-1.696046498E+02	4.081842432E+02	7.871901350E+02	1.000000000E-05	0.000000000E+00	0.000000000E+00

</event>
<event>
	4	1	3.267126300E-02	1.379287000E+03	7.818608000E-03	8.968950000E-02
	-2	-1	0	0	0	501	-0.000000000E+00	0.000000000E+00	4.536379362E+02	4.536379362E+02	5.040000000E-03	0.000000000E+00	1.000000000E+00
	1	-1	0	0	501	0	0.000000000E+00	-0.000000000E+00	-1.048431288E+03	1.048431288E+03	2.550000000E-03	0.000000000E+00	-1.000000000E+00
	-24	1	1	2	0	0	-3.543880580E+02	-5.880703070E+02	-3.330022331E+02	7.672548451E+02	7.982435975E+01	0.000000000E+00	-1.000000000E+00
	9000005	1	1	2	0	0	3.543880580E+02	5.880703070E+02	-2.617911181E+02	7.348143787E+02	1.000000000E-05	0.000000000E+00	0.000000000E+00

</event>
<event>
	4	1	3.267126300E-02	2.030259000E+03	7.818608000E-03	8.592603000E-02
	-2	-1	0	0	0	501	-0.000000000E+00	0.000000000E+00	6.909798241E+02	6.909798241E+02	5.040000000E-03	0.000000000E+00	1.000000000E+00
	1	-1	0	0	501	0	0.000000000E+00	-0.000000000E+00	-1.491342326E+03	1.491342326E+03	2.550000000E-03	0.000000000E+00	-1.000000000E+00
	-24	1	1	2	0	0	-7.627618120E+02	8.250354856E+01	3.111462665E+02	8.317429560E+02	7.982435975E+01	0.000000000E+00	1.000000000E+00
	9000005	1	1	2	0	0	7.627618120E+02	-8.250354856E+01	-1.111508768E+03	1.350579194E+03	1.000000000E-05	0.000000000E+00	0.000000000E+00

</event>
<event>
	4	1	3.267126300E-02	1.675215000E+03	7.818608000E-03	8.775628000E-02
	-2	-1	0	0	0	501	-0.000000000E+00	0.000000000E+00	4.771083218E+02	4.771083218E+02	5.040000000E-03	0.000000000E+00	1.000000000E+00
	1	-1	0	0	501	0	0.000000000E+00	-0.000000000E+00	-1.470496728E+03	1.470496728E+03	2.550000000E-03	0.000000000E+00	-1.000000000E+00
	-24	1	1	2	0	0	-2.556386686E+02	-5.909535919E+02	1.215576610E+02	6.600950462E+02	7.982435975E+01	0.000000000E+00	1.000000000E+00
	9000005	1	1	2	0	0	2.556386686E+02	5.909535919E+02	-1.114946067E+03	1.287510004E+03	1.000000000E-05	0.000000000E+00	0.000000000E+00

</event>
<event>
	4	1	3.267126300E-02	3.211582000E+03	7.818608000E-03	8.185765000E-02
	1	-1	0	0	501	0	0.000000000E+00	0.000000000E+00	1.788325842E+03	1.788325842E+03	5.040000000E-03	0.000000000E+00	-1.000000000E+00
	-2	-1	0	0	0	501	-0.000000000E+00	-0.000000000E+00	-1.441887656E+03	1.441887656E+03	2.550000000E-03	0.000000000E+00	1.000000000E+00
	-24	1	1	2	0	0	2.430072232E+02	-1.072268284E+03	1.349110921E+03	1.742206644E+03	7.982435975E+01	0.000000000E+00	-1.000000000E+00
	9000005	1	1	2	0	0	-2.430072232E+02	1.072268284E+03	-1.002672735E+03	1.488006854E+03	1.000000000E-05	0.000000000E+00	0.000000000E+00

</event>
<event>
	4	1	3.267126300E-02	1.276704000E+03	7.818608000E-03	9.048246000E-02
	1	-1	0	0	501	0	0.000000000E+00	0.000000000E+00	4.424675649E+02	4.424675650E+02	5.040000000E-03	0.000000000E+00	-1.000000000E+00
	-2	-1	0	0	0	501	-0.000000000E+00	-0.000000000E+00	-9.209559040E+02	9.209559040E+02	2.550000000E-03	0.000000000E+00	1.000000000E+00
	-24	1	1	2	0	0	-9.937483536E+01	6.126225057E+02	-9.246692303E+01	6.325375504E+02	7.982435975E+01	0.000000000E+00	-1.000000000E+00
	9000005	1	1	2	0	0	9.937483536E+01	-6.126225057E+02	-3.860214160E+02	7.308859186E+02	1.000000000E-05	0.000000000E+00	0.000000000E+00

</event>
<event>
	4	1	3.267126300E-02	1.300807000E+03	7.818608000E-03	9.028925000E-02
	1	-1	0	0	501	0	0.000000000E+00	0.000000000E+00	4.809767241E+02	4.809767241E+02	5.040000000E-03	0.000000000E+00	-1.000000000E+00
	-2	-1	0	0	0	501	-0.000000000E+00	-0.000000000E+00	-8.795121378E+02	8.795121378E+02	2.550000000E-03	0.000000000E+00	1.000000000E+00
	-24	1	1	2	0	0	2.173438766E+02	5.868000405E+02	-2.416003665E+01	6.312909662E+02	7.982435975E+01	0.000000000E+00	-1.000000000E+00
	9000005	1	1	2	0	0	-2.173438766E+02	-5.868000405E+02	-3.743753770E+02	7.291978958E+02	1.000000000E-05	0.000000000E+00	0.000000000E+00

</event>
<event>
	4	1	3.267126300E-02	2.057383000E+03	7.818608000E-03	8.580253000E-02
	1	-1	0	0	501	0	0.000000000E+00	0.000000000E+00	3.313664812E+02	3.313664812E+02	5.040000000E-03	0.000000000E+00	-1.000000000E+00
	-2	-1	0	0	0	501	-0.000000000E+00	-0.000000000E+00	-3.193460843E+03	3.193460843E+03	2.550000000E-03	0.000000000E+00	1.000000000E+00
	-24	1	1	2	0	0	1.255479030E+02	-9.671465735E+02	-8.809911173E+02	1.316682212E+03	7.982435975E+01	0.000000000E+00	-1.000000000E+00
	9000005	1	1	2	0	0	-1.255479030E+02	9.671465735E+02	-1.981103245E+03	2.208145112E+03	1.000000000E-05	0.000000000E+00	0.000000000E+00

</event>
<event>
	6	1	3.267126300E-02	2.564954000E+03	7.818608000E-03	8.380204000E-02
	2	-1	0	0	501	0	0.000000000E+00	0.000000000E+00	2.912549319E+03	2.912549319E+03	2.550000000E-03	0.000000000E+00	-1.000000000E+00
	-1	-1	0	0	0	501	-0.000000000E+00	-0.000000000E+00	-5.647103714E+02	5.647103714E+02	5.040000000E-03	0.000000000E+00	1.000000000E+00
	24	2	1	2	0	0	1.010491750E+03	-7.239206762E+02	1.595959012E+03	2.024511205E+03	8.003580618E+01	0.000000000E+00	0.000000000E+00
	-11	1	3	3	0	0	7.924153638E+02	-5.361829406E+02	1.190502011E+03	1.527320953E+03	5.110000000E-04	0.000000000E+00	1.000000000E+00
	12	1	3	3	0	0	2.180763864E+02	-1.877377356E+02	4.054570012E+02	4.971902528E+02	0.000000000E+00	0.000000000E+00	-1.000000000E+00
	9000005	1	1	2	0	0	-1.010491750E+03	7.239206762E+02	7.518799355E+02	1.452748485E+03	1.000000000E-05	0.000000000E+00	0.000000000E+00

</event>
<event>
	4	1	3.267126300E-02	1.600210000E+03	7.818608000E-03	8.820419000E-02
	1	-1	0	0	501	0	0.000000000E+00	0.000000000E+00	1.932453751E+03	1.932453751E+03	5.040000000E-03	0.000000000E+00	-1.000000000E+00
	-2	-1	0	0	0	501	-0.000000000E+00	-0.000000000E+00	-3.312719985E+02	3.312719985E+02	2.550000000E-03	0.000000000E+00	1.000000000E+00
	-24	1	1	2	0	0	6.893426418E+02	-3.095802248E+02	4.392851157E+02	8.777109631E+02	7.982435975E+01	0.000000000E+00	1.000000000E+00
	9000005	1	1	2	0	0	-6.893426418E+02	3.095802248E+02	1.161896636E+03	1.386014786E+03	1.000000000E-05	0.000000000E+00	0.000000000E+00

</event>
<event>
	4	1	3.267126300E-02	1.602684000E+03	7.818608000E-03	8.818901000E-02
	-4	-1	0	0	0	501	-0.000000000E+00	0.000000000E+00	5.608700003E+02	5.608714381E+02	1.010000000E-01	0.000000000E+00	1.000000000E+00
	3	-1	0	0	501	0	0.000000000E+00	-0.000000000E+00	-1.144914286E+03	1.144914291E+03	1.270000000E+00	0.000000000E+00	-1.000000000E+00
	-24	1	1	2	0	0	-6.735566521E+02	-2.819207940E+02	-6.389557516E+02	9.735472657E+02	7.982435975E+01	0.000000000E+00	-1.000000000E+00
	9000005	1	1	2	0	0	6.735566521E+02	2.819207940E+02	5.491146579E+01	7.322384630E+02	1.000000000E-05	0.000000000E+00	0.000000000E+00

</event>
<event>
	4	1	3.267126300E-02	1.438878000E+03	7.818608000E-03	8.926148000E-02
	1	-1	0	0	501	0	0.000000000E+00	0.000000000E+00	4.569070754E+02	4.569070755E+02	5.040000000E-03	0.000000000E+00	-1.000000000E+00
	-4	-1	0	0	0	501	-0.000000000E+00	-0.000000000E+00	-1.132816639E+03	1.132817350E+03	1.270000000E+00	0.000000000E+00	1.000000000E+00
	-24	1	1	2	0	0	7.105358015E+02	4.228736870E+01	-4.363339997E+02	8.386946014E+02	7.982435975E+01	0.000000000E+00	-1.000000000E+00
	9000005	1	1	2	0	0	-7.105358015E+02	-4.228736870E+01	-2.395755634E+02	7.510298245E+02	1.000000000E-05	0.000000000E+00	0.000000000E+00

</event>
<event>
	4	1	3.267126300E-02	1.977076000E+03	7.818608000E-03	8.617414000E-02
	-2	-1	0	0	0	501	-0.000000000E+00	0.000000000E+00	8.299176230E+02	8.299176230E+02	5.040000000E-03	0.000000000E+00	1.000000000E+00
	1	-1	0	0	501	0	0.000000000E+00	-0.000000000E+00	-1.177475623E+03	1.177475623E+03	2.550000000E-03	0.000000000E+00	-1.000000000E+00
	-24	1	1	2	0	0	-1.359035481E+01	9.793086512E+02	-2.975591058E+02	1.026714898E+03	7.982435975E+01	0.000000000E+00	1.000000000E+00
	9000005	1	1	2	0	0	1.359035481E+01	-9.793086512E+02	-4.999889378E+01	9.806783476E+02	1.000000000E-05	0.000000000E+00	0.000000000E+00

</event>
<event>
	4	1	3.267126300E-02	2.130417000E+03	7.818608000E-03	8.547961000E-02
	1	-1	0	0	501	0	0.000000000E+00	0.000000000E+00	3.605212736E+03	3.605212736E+03	5.040000000E-03	0.000000000E+00	-1.000000000E+00
	-2	-1	0	0	0	501	-0.000000000E+00	-0.000000000E+00	-3.147302954E+02	3.147302954E+02	2.550000000E-03	0.000000000E+00	1.000000000E+00
	-24	1	1	2	0	0	2.096088942E+02	-8.001893338E+02	2.878071338E+03	2.995647745E+03	7.982435975E+01	0.000000000E+00	-1.000000000E+00
	9000005	1	1	2	0	0	-2.096088942E+02	8.001893338E+02	4.124111025E+02	9.242952861E+02	1.000000000E-05	0.000000000E+00	0.000000000E+00

</event>
<event>
	4	1	3.267126300E-02	1.299825000E+03	7.818608000E-03	9.029704000E-02
	-2	-1	0	0	0	501	-0.000000000E+00	0.000000000E+00	3.680996606E+02	3.680996606E+02	5.040000000E-03	0.000000000E+00	1.000000000E+00
	1	-1	0	0	501	0	0.000000000E+00	-0.000000000E+00	-1.147478627E+03	1.147478627E+03	2.550000000E-03	0.000000000E+00	-1.000000000E+00
	-24	1	1	2	0	0	-5.706404682E+02	-2.637748440E+02	-2.105297887E+02	6.677592625E+02	7.982435975E+01	0.000000000E+00	1.000000000E+00
	9000005	1	1	2	0	0	5.706404682E+02	2.637748440E+02	-5.688491774E+02	8.478190249E+02	1.000000000E-05	0.000000000E+00	0.000000000E+00

</event>
<event>
	6	1	3.267126300E-02	1.670340000E+03	7.818608000E-03	8.778464000E-02
	-3	-1	0	0	0	501	-0.000000000E+00	0.000000000E+00	3.241971244E+02	3.241971401E+02	2.550000000E-03	0.000000000E+00	1.000000000E+00
	2	-1	0	0	501	0	0.000000000E+00	-0.000000000E+00	-2.151496260E+03	2.151496260E+03	1.010000000E-01	0.000000000E+00	-1.000000000E+00
	24	2	1	2	0	0	-7.038402195E+02	-3.574693110E+02	-5.206030606E+02	9.490532999E+02	8.061796614E+01	0.000000000E+00	0.000000000E+00
	-11	1	3	3	0	0	-6.084963107E+02	-2.808493441E+02	-4.572116625E+02	8.112870136E+02	5.110000000E-04	0.000000000E+00	1.000000000E+00
	12	1	3	3	0	0	-9.534390885E+01	-7.661996689E+01	-6.339139812E+01	1.377662863E+02	0.000000000E+00	0.000000000E+00	-1.000000000E+00
	9000005	1	1	2	0	0	7.038402195E+02	3.574693110E+02	-1.306696075E+03	1.526640100E+03	1.000000000E-05	0.000000000E+00	0.000000000E+00

</event>
<event>
	4	1	3.267126300E-02	2.641033000E+03	7.818608000E-03	8.354395000E-02
	1	-1	0	0	501	0	0.000000000E+00	0.000000000E+00	1.480310359E+03	1.480310359E+03	5.040000000E-03	0.000000000E+00	-1.000000000E+00
	-2	-1	0	0	0	501	-0.000000000E+00	-0.000000000E+00	-1.177971909E+03	1.177971909E+03	2.550000000E-03	0.000000000E+00	1.000000000E+00
	-24	1	1	2	0	0	9.563928120E+02	-6.241800332E+02	8.161450574E+02	1.405970344E+03	7.982435975E+01	0.000000000E+00	-1.000000000E+00
	9000005	1	1	2	0	0	-9.563928120E+02	6.241800332E+02	-5.138066075E+02	1.252311924E+03	1.000000000E-05	0.000000000E+00	0.000000000E+00

</event>
<event>
	4	1	3.267126300E-02	1.472342000E+03	7.818608000E-03	8.903056000E-02
	1	-1	0	0	501	0	0.000000000E+00	0.000000000E+00	8.040853261E+02	8.040853262E+02	5.040000000E-03	0.000000000E+00	-1.000000000E+00
	-2	-1	0	0	0	501	-0.000000000E+00	-0.000000000E+00	-6.739931693E+02	6.739931693E+02	2.550000000E-03	0.000000000E+00	1.000000000E+00
	-24	1	1	2	0	0	-5.653612660E+02	4.008479682E+02	-1.774778564E+02	7.198491318E+02	7.982435975E+01	0.000000000E+00	1.000000000E+00
	9000005	1	1	2	0	0	5.653612660E+02	-4.008479682E+02	3.075700133E+02	7.582293636E+02	1.000000000E-05	0.000000000E+00	0.000000000E+00

</event>
<event>
	4	1	3.267126300E-02	1.666871000E+03	7.818608000E-03	8.780488000E-02
	1	-1	0	0	501	0	0.000000000E+00	0.000000000E+00	1.636059719E+03	1.636059719E+03	5.040000000E-03	0.000000000E+00	-1.000000000E+00
	-2	-1	0	0	0	501	-0.000000000E+00	-0.000000000E+00	-4.245656594E+02	4.245656595E+02	2.550000000E-03	0.000000000E+00	1.000000000E+00
	-24	1	1	2	0	0	-7.442897315E+02	-3.478057665E+02	7.659147187E+02	1.126025462E+03	7.982435975E+01	0.000000000E+00	-1.000000000E+00
	9000005	1	1	2	0	0	7.442897315E+02	3.478057665E+02	4.455793410E+02	9.345999170E+02	1.000000000E-05	0.000000000E+00	0.000000000E+00

</event>
<event>
	4	1	3.267126300E-02	2.190604000E+03	7.818608000E-03	8.522349000E-02
	-2	-1	0	0	0	501	-0.000000000E+00	0.000000000E+00	8.114932576E+02	8.114932576E+02	5.040000000E-03	0.000000000E+00	1.000000000E+00
	1	-1	0	0	501	0	0.000000000E+00	-0.000000000E+00	-1.478369362E+03	1.478369362E+03	2.550000000E-03	0.000000000E+00	-1.000000000E+00
	-24	1	1	2	0	0	-7.175119436E+02	5.635255652E+02	2.968831291E+02	9.627543678E+02	7.982435975E+01	0.000000000E+00	1.000000000E+00
	9000005	1	1	2	0	0	7.175119436E+02	-5.635255652E+02	-9.637592331E+02	1.327108252E+03	1.000000000E-05	0.000000000E+00	0.000000000E+00

</event>
<event>
	4	1	3.267126300E-02	1.660416000E+03	7.818608000E-03	8.784268000E-02
	1	-1	0	0	501	0	0.000000000E+00	0.000000000E+00	2.027613261E+03	2.027613261E+03	5.040000000E-03	0.000000000E+00	-1.000000000E+00
	-2	-1	0	0	0	501	-0.000000000E+00	-0.000000000E+00	-3.399295246E+02	3.399295246E+02	2.550000000E-03	0.000000000E+00	1.000000000E+00
	-24	1	1	2	0	0	7.310254597E+02	3.661757007E+02	1.034850556E+03	1.321276076E+03	7.982435975E+01	0.000000000E+00	-1.000000000E+00
	9000005	1	1	2	0	0	-7.310254597E+02	-3.661757007E+02	6.528331796E+02	1.046266709E+03	1.000000000E-05	0.000000000E+00	0.000000000E+00

</event>
<event>
	4	1	3.267126300E-02	2.278276000E+03	7.818608000E-03	8.486536000E-02
	-2	-1	0	0	0	501	-0.000000000E+00	0.000000000E+00	1.237222475E+03	1.237222475E+03	5.040000000E-03	0.000000000E+00	1.000000000E+00
	1	-1	0	0	501	0	0.000000000E+00	-0.000000000E+00	-1.048829512E+03	1.048829512E+03	2.550000000E-03	0.000000000E+00	-1.000000000E+00
	-24	1	1	2	0	0	-9.338993846E+02	5.807918851E+02	-1.981688719E+02	1.120325892E+03	7.982435975E+01	0.000000000E+00	-1.000000000E+00
	9000005	1	1	2	0	0	9.338993846E+02	-5.807918851E+02	3.865618347E+02	1.165726094E+03	1.000000000E-05	0.000000000E+00	0.000000000E+00

</event>
<event>
	4	1	3.267126300E-02	1.641080000E+03	7.818608000E-03	8.795701000E-02
	-2	-1	0	0	0	501	-0.000000000E+00	0.000000000E+00	7.470875709E+02	7.470875709E+02	5.040000000E-03	0.000000000E+00	1.000000000E+00
	1	-1	0	0	501	0	0.000000000E+00	-0.000000000E+00	-9.012139656E+02	9.012139656E+02	2.550000000E-03	0.000000000E+00	-1.000000000E+00
	-24	1	1	2	0	0	-9.414206018E+01	7.825663486E+02	1.447036847E+02	8.053470694E+02	7.982435975E+01	0.000000000E+00	-1.000000000E+00
	9000005	1	1	2	0	0	9.414206018E+01	-7.825663486E+02	-2.988300793E+02	8.429544672E+02	1.000000000E-05	0.000000000E+00	0.000000000E+00

</event>
<event>
	4	1	3.267126300E-02	2.279398000E+03	7.818608000E-03	8.486089000E-02
	-2	-1	0	0	0	501	-0.000000000E+00	0.000000000E+00	1.005256418E+03	1.005256418E+03	5.040000000E-03	0.000000000E+00	1.000000000E+00
	1	-1	0	0	501	0	0.000000000E+00	-0.000000000E+00	-1.292122184E+03	1.292122184E+03	2.550000000E-03	0.000000000E+00	-1.000000000E+00
	-24	1	1	2	0	0	-2.113874402E+02	8.113675234E+02	6.323526725E+02	1.053206408E+03	7.982435975E+01	0.000000000E+00	1.000000000E+00
	9000005	1	1	2	0	0	2.113874402E+02	-8.113675234E+02	-9.192184394E+02	1.244172194E+03	1.000000000E-05	0.000000000E+00	0.000000000E+00

</event>
<event>
	4	1	3.267126300E-02	2.051892000E+03	7.818608000E-03	8.582736000E-02
	1	-1	0	0	501	0	0.000000000E+00	0.000000000E+00	8.490750761E+02	8.490750761E+02	5.040000000E-03	0.000000000E+00	-1.000000000E+00
	-2	-1	0	0	0	501	-0.000000000E+00	-0.000000000E+00	-1.239661461E+03	1.239661461E+03	2.550000000E-03	0.000000000E+00	1.000000000E+00
	-24	1	1	2	0	0	3.855880425E+02	9.375057690E+02	-3.458429805E+02	1.074045856E+03	7.982435975E+01	0.000000000E+00	1.000000000E+00
	9000005	1	1	2	0	0	-3.855880425E+02	-9.375057690E+02	-4.474340412E+01	1.014690681E+03	1.000000000E-05	0.000000000E+00	0.000000000E+00

</event>
<event>
	4	1	3.267126300E-02	1.814139000E+03	7.818608000E-03	8.698817000E-02
	1	-1	0	0	501	0	0.000000000E+00	0.000000000E+00	2.410198653E+03	2.410198653E+03	5.040000000E-03	0.000000000E+00	-1.000000000E+00
	-2	-1	0	0	0	501	-0.000000000E+00	-0.000000000E+00	-3.413721604E+02	3.413721604E+02	2.550000000E-03	0.000000000E+00	1.000000000E+00
	-24	1	1	2	0	0	5.366268368E+02	6.676368754E+02	1.480911698E+03	1.712652546E+03	7.982435975E+01	0.000000000E+00	-1.000000000E+00
	9000005	1	1	2	0	0	-5.366268368E+02	-6.676368754E+02	5.879147946E+02	1.038918267E+03	1.000000000E-05	0.000000000E+00	0.000000000E+00

</event>
<event>
	4	1	3.267126300E-02	1.522056000E+03	7.818608000E-03	8.869917000E-02
	-2	-1	0	0	0	501	-0.000000000E+00	0.000000000E+00	1.497967848E+02	1.497967848E+02	5.040000000E-03	0.000000000E+00	1.000000000E+00
	1	-1	0	0	501	0	0.000000000E+00	-0.000000000E+00	-3.866327008E+03	3.866327008E+03	2.550000000E-03	0.000000000E+00	-1.000000000E+00
	-24	1	1	2	0	0	7.325260546E+02	-8.783627067E+01	-1.393790109E+03	1.579028951E+03	7.982435975E+01	0.000000000E+00	1.000000000E+00
	9000005	1	1	2	0	0	-7.325260546E+02	8.783627067E+01	-2.322740114E+03	2.437094841E+03	1.000000000E-05	0.000000000E+00	0.000000000E+00

</event>
<event>
	4	1	3.267126300E-02	1.915466000E+03	7.818608000E-03	8.647196000E-02
	1	-1	0	0	501	0	0.000000000E+00	0.000000000E+00	2.051688751E+03	2.051688751E+03	5.040000000E-03	0.000000000E+00	-1.000000000E+00
	-2	-1	0	0	0	501	-0.000000000E+00	-0.000000000E+00	-4.470719545E+02	4.470719545E+02	2.550000000E-03	0.000000000E+00	1.000000000E+00
	-24	1	1	2	0	0	3.563011575E+01	-9.441002784E+02	6.125354473E+02	1.128789814E+03	7.982435975E+01	0.000000000E+00	1.000000000E+00
	9000005	1	1	2	0	0	-3.563011575E+01	9.441002784E+02	9.920813492E+02	1.369970892E+03	1.000000000E-05	0.000000000E+00	0.000000000E+00

</event>
<event>
	4	1	3.267126300E-02	1.597046000E+03	7.818608000E-03	8.822365000E-02
	-2	-1	0	0	0	501	-0.000000000E+00	0.000000000E+00	4.966348615E+02	4.966348615E+02	5.040000000E-03	0.000000000E+00	1.000000000E+00
	1	-1	0	0	501	0	0.000000000E+00	-0.000000000E+00	-1.283918714E+03	1.283918714E+03	2.550000000E-03	0.000000000E+00	-1.000000000E+00
	-24	1	1	2	0	0	4.521752485E+02	6.255658906E+02	-1.754064467E+02	7.955717999E+02	7.982435975E+01	0.000000000E+00	-1.000000000E+00
	9000005	1	1	2	0	0	-4.521752485E+02	-6.255658906E+02	-6.118774060E+02	9.849817759E+02	1.000000000E-05	0.000000000E+00	0.000000000E+00

</event>
<event>
	4	1	3.267126300E-02	2.358366000E+03	7.818608000E-03	8.455257000E-02
	1	-1	0	0	501	0	0.000000000E+00	0.000000000E+00	1.012611092E+03	1.012611092E+03	5.040000000E-03	0.000000000E+00	-1.000000000E+00
	-2	-1	0	0	0	501	-0.000000000E+00	-0.000000000E+00	-1.373155240E+03	1.373155240E+03	2.550000000E-03	0.000000000E+00	1.000000000E+00
	-24	1	1	2	0	0	7.699525807E+02	-5.467601670E+02	5.316278229E+02	1.086634128E+03	7.982435975E+01	0.000000000E+00	-1.000000000E+00
	9000005	1	1	2	0	0	-7.699525807E+02	5.467601670E+02	-8.921719711E+02	1.299132204E+03	1.000000000E-05	0.000000000E+00	0.000000000E+00

</event>
<event>
	4	1	3.267126300E-02	1.398158000E+03	7.818608000E-03	8.955153000E-02
	-2	-1	0	0	0	501	-0.000000000E+00	0.000000000E+00	1.734634729E+02	1.734634729E+02	5.040000000E-03	0.000000000E+00	1.000000000E+00
	1	-1	0	0	501	0	0.000000000E+00	-0.000000000E+00	-2.817374538E+03	2.817374538E+03	2.550000000E-03	0.000000000E+00	-1.000000000E+00
	-24	1	1	2	0	0	8.355957549E+01	-6.570361566E+02	-8.632431313E+02	1.090980910E+03	7.982435975E+01	0.000000000E+00	-1.000000000E+00
	9000005	1	1	2	0	0	-8.355957549E+01	6.570361566E+02	-1.780667934E+03	1.899857101E+03	1.000000000E-05	0.000000000E+00	0.000000000E+00

</event>
<event>
	4	1	3.267126300E-02	1.929016000E+03	7.818608000E-03	8.640546000E-02
	1	-1	0	0	501	0	0.000000000E+00	0.000000000E+00	1.185346058E+03	1.185346058E+03	5.040000000E-03	0.000000000E+00	-1.000000000E+00
	-2	-1	0	0	0	501	-0.000000000E+00	-0.000000000E+00	-7.848138521E+02	7.848138521E+02	2.550000000E-03	0.000000000E+00	1.000000000E+00
	-24	1	1	2	0	0	3.491872337E+02	7.583051472E+02	-2.893460797E+02	8.871592318E+02	7.982435975E+01	0.000000000E+00	-1.000000000E+00
	9000005	1	1	2	0	0	-3.491872337E+02	-7.583051472E+02	6.898782860E+02	1.083000679E+03	1.000000000E-05	0.000000000E+00	0.000000000E+00

</event>
<event>
	4	1	3.267126300E-02	1.436006000E+03	7.818608000E-03	8.928160000E-02
	1	-1	0	0	501	0	0.000000000E+00	0.000000000E+00	2.164279775E+03	2.164279775E+03	5.040000000E-03	0.000000000E+00	-1.000000000E+00
	-2	-1	0	0	0	501	-0.000000000E+00	-0.000000000E+00	-2.381984687E+02	2.381984687E+02	2.550000000E-03	0.000000000E+00	1.000000000E+00
	-24	1	1	2	0	0	-6.622217460E+02	7.537274436E+01	5.293323649E+02	8.548586857E+02	7.982435975E+01	0.000000000E+00	1.000000000E+00
	9000005	1	1	2	0	0	6.622217460E+02	-7.537274436E+01	1.396748941E+03	1.547619558E+03	1.000000000E-05	0.000000000E+00	0.000000000E+00

</event>
<event>
	4	1	3.267126300E-02	3.631358000E+03	7.818608000E-03	8.083346000E-02
	-2	-1	0	0	0	501	-0.000000000E+00	0.000000000E+00	8.567797513E+02	8.567797513E+02	5.040000000E-03	0.000000000E+00	1.000000000E+00
	1	-1	0	0	501	0	0.000000000E+00	-0.000000000E+00	-3.847767804E+03	3.847767804E+03	2.550000000E-03	0.000000000E+00	-1.000000000E+00
	-24	1	1	2	0	0	5.657933014E+02	1.674177877E+03	-9.612524968E+02	2.013298765E+03	7.982435975E+01	0.000000000E+00	-1.000000000E+00
	9000005	1	1	2	0	0	-5.657933014E+02	-1.674177877E+03	-2.029735556E+03	2.691248790E+03	1.000000000E-05	0.000000000E+00	0.000000000E+00

</event>
<event>
	4	1	3.267126300E-02	1.219481000E+03	7.818608000E-03	9.095973000E-02
	1	-1	0	0	501	0	0.000000000E+00	0.000000000E+00	1.202668964E+03	1.202668964E+03	5.040000000E-03	0.000000000E+00	-1.000000000E+00
	-2	-1	0	0	0	501	-0.000000000E+00	-0.000000000E+00	-3.091322317E+02	3.091322317E+02	2.550000000E-03	0.000000000E+00	1.000000000E+00
	-24	1	1	2	0	0	-5.948206048E+02	1.155203137E+02	4.958584981E+02	7.870222826E+02	7.982435975E+01	0.000000000E+00	-1.000000000E+00
	9000005	1	1	2	0	0	5.948206048E+02	-1.155203137E+02	3.976782341E+02	7.247789129E+02	1.000000000E-05	0.000000000E+00	0.000000000E+00

</event>
<event>
	4	1	3.267126300E-02	2.241262000E+03	7.818608000E-03	8.501448000E-02
	1	-1	0	0	501	0	0.000000000E+00	0.000000000E+00	1.135571193E+03	1.135571193E+03	5.040000000E-03	0.000000000E+00	-1.000000000E+00
	-2	-1	0	0	0	501	-0.000000000E+00	-0.000000000E+00	-1.105887101E+03	1.105887101E+03	2.550000000E-03	0.000000000E+00	1.000000000E+00
	-24	1	1	2	0	0	8.498787966E+02	-5.075493632E+02	-5.074198055E+02	1.115234107E+03	7.982435975E+01	0.000000000E+00	1.000000000E+00
	9000005	1	1	2	0	0	-8.498787966E+02	5.075493632E+02	5.371038968E+02	1.126224188E+03	1.000000000E-05	0.000000000E+00	0.000000000E+00

</event>
<event>
	4	1	3.267126300E-02	1.639551000E+03	7.818608000E-03	8.796612000E-02
	-2	-1	0	0	0	501	-0.000000000E+00	0.000000000E+00	1.464410861E+03	1.464410861E+03	5.040000000E-03	0.000000000E+00	1.000000000E+00
	1	-1	0	0	501	0	0.000000000E+00	-0.000000000E+00	-4.589095283E+02	4.589095283E+02	2.550000000E-03	0.000000000E+00	-1.000000000E+00
	-24	1	1	2	0	0	1.582803677E+02	6.278717067E+02	-8.209673878E+01	6.575616760E+02	7.982435975E+01	0.000000000E+00	-1.000000000E+00
	9000005	1	1	2	0	0	-1.582803677E+02	-6.278717067E+02	1.087598071E+03	1.265758713E+03	1.000000000E-05	0.000000000E+00	0.000000000E+00

</event>
<event>
	4	1	3.267126300E-02	1.583788000E+03	7.818608000E-03	8.830570000E-02
	-2	-1	0	0	0	501	-0.000000000E+00	0.000000000E+00	4.817875134E+02	4.817875134E+02	5.040000000E-03	0.000000000E+00	1.000000000E+00
	1	-1	0	0	501	0	0.000000000E+00	-0.000000000E+00	-1.301603768E+03	1.301603768E+03	2.550000000E-03	0.000000000E+00	-1.000000000E+00
	-24	1	1	2	0	0	2.098388990E+02	7.568753521E+02	-3.165920634E+02	8.505851663E+02	7.982435975E+01	0.000000000E+00	-1.000000000E+00
	9000005	1	1	2	0	0	-2.098388990E+02	-7.568753521E+02	-5.032241914E+02	9.328061154E+02	1.000000000E-05	0.000000000E+00	0.000000000E+00

</event>
<event>
	4	1	3.267126300E-02	3.651907000E+03	7.818608000E-03	8.078704000E-02
	-2	-1	0	0	0	501	-0.000000000E+00	0.000000000E+00	2.330094173E+03	2.330094173E+03	5.040000000E-03	0.000000000E+00	1.000000000E+00
	1	-1	0	0	501	0	0.000000000E+00	-0.000000000E+00	-1.430889270E+03	1.430889270E+03	2.550000000E-03	0.000000000E+00	-1.000000000E+00
	-24	1	1	2	0	0	-1.419962723E+03	-1.126321702E+03	6.707638230E+02	1.934215796E+03	7.982435975E+01	0.000000000E+00	-1.000000000E+00
	9000005	1	1	2	0	0	1.419962723E+03	1.126321702E+03	2.284410801E+02	1.826767648E+03	1.000000000E-05	0.000000000E+00	0.000000000E+00

</event>
<event>
	4	1	3.267126300E-02	1.416093000E+03	7.818608000E-03	8.942251000E-02
	-2	-1	0	0	0	501	-0.000000000E+00	0.000000000E+00	1.766601012E+02	1.766601012E+02	5.040000000E-03	0.000000000E+00	1.000000000E+00
	1	-1	0	0	501	0	0.000000000E+00	-0.000000000E+00	-2.837823084E+03	2.837823084E+03	2.550000000E-03	0.000000000E+00	-1.000000000E+00
	-24	1	1	2	0	0	-2.531989311E+02	6.019372789E+02	-1.904860724E+03	2.015267847E+03	7.982435975E+01	0.000000000E+00	1.000000000E+00
	9000005	1	1	2	0	0	2.531989311E+02	-6.019372789E+02	-7.563022583E+02	9.992153383E+02	1.000000000E-05	0.000000000E+00	0.000000000E+00

</event>
<event>
	4	1	3.267126300E-02	1.382847000E+03	7.818608000E-03	8.966329000E-02
	1	-1	0	0	501	0	0.000000000E+00	0.000000000E+00	1.547477917E+03	1.547477917E+03	5.040000000E-03	0.000000000E+00	-1.000000000E+00
	-2	-1	0	0	0	501	-0.000000000E+00	-0.000000000E+00	-3.089327611E+02	3.089327611E+02	2.550000000E-03	0.000000000E+00	1.000000000E+00
	-24	1	1	2	0	0	-5.308559023E+02	-4.389953811E+02	5.958281562E+02	9.142800741E+02	7.982435975E+01	0.000000000E+00	1.000000000E+00
	9000005	1	1	2	0	0	5.308559023E+02	4.389953811E+02	6.427170000E+02	9.421306044E+02	1.000000000E-05	0.000000000E+00	0.000000000E+00

</event>
<event>
	4	1	3.267126300E-02	2.301400000E+03	7.818608000E-03	8.477369000E-02
	-2	-1	0	0	0	501	-0.000000000E+00	0.000000000E+00	7.684280478E+02	7.684280478E+02	5.040000000E-03	0.000000000E+00	1.000000000E+00
	1	-1	0	0	501	0	0.000000000E+00	-0.000000000E+00	-1.723142118E+03	1.723142118E+03	2.550000000E-03	0.000000000E+00	-1.000000000E+00
	-24	1	1	2	0	0	5.258712160E+02	-5.226369558E+02	-1.428699933E+03	1.611597143E+03	7.982435975E+01	0.000000000E+00	-1.000000000E+00
	9000005	1	1	2	0	0	-5.258712160E+02	5.226369558E+02	4.739858628E+02	8.799730232E+02	1.000000000E-05	0.000000000E+00	0.000000000E+00

</event>
<event>
	4	1	3.267126300E-02	1.348810000E+03	7.818608000E-03	8.991729000E-02
	-2	-1	0	0	0	501	-0.000000000E+00	0.000000000E+00	3.100437571E+02	3.100437571E+02	5.040000000E-03	0.000000000E+00	1.000000000E+00
	1	-1	0	0	501	0	0.000000000E+00	-0.000000000E+00	-1.466961756E+03	1.466961756E+03	2.550000000E-03	0.000000000E+00	-1.000000000E+00
	-24	1	1	2	0	0	4.618098963E+02	-4.547693906E+02	-3.464422697E+02	7.392413365E+02	7.982435975E+01	0.000000000E+00	1.000000000E+00
	9000005	1	1	2	0	0	-4.618098963E+02	4.547693906E+02	-8.104757294E+02	1.037764177E+03	1.000000000E-05	0.000000000E+00	0.000000000E+00

</event>
<event>
	4	1	3.267126300E-02	1.306326000E+03	7.818608000E-03	9.024563000E-02
	1	-1	0	0	501	0	0.000000000E+00	0.000000000E+00	1.743606975E+03	1.743606975E+03	5.040000000E-03	0.000000000E+00	-1.000000000E+00
	-2	-1	0	0	0	501	-0.000000000E+00	-0.000000000E+00	-2.446778721E+02	2.446778721E+02	2.550000000E-03	0.000000000E+00	1.000000000E+00
	-24	1	1	2	0	0	-6.363297572E+02	-4.514905126E+01	5.568239481E+02	8.505168043E+02	7.982435975E+01	0.000000000E+00	-1.000000000E+00
	9000005	1	1	2	0	0	6.363297572E+02	4.514905126E+01	9.421051549E+02	1.137768043E+03	1.000000000E-05	0.000000000E+00	0.000000000E+00

</event>
<event>
	4	1	3.267126300E-02	1.487316000E+03	7.818608000E-03	8.892932000E-02
	1	-1	0	0	501	0	0.000000000E+00	0.000000000E+00	2.151743760E+03	2.151743760E+03	5.040000000E-03	0.000000000E+00	-1.000000000E+00
	-4	-1	0	0	0	501	-0.000000000E+00	-0.000000000E+00	-2.570116880E+02	2.570148258E+02	1.270000000E+00	0.000000000E+00	1.000000000E+00
	-24	1	1	2	0	0	-5.043274724E+01	7.113115519E+02	1.279374946E+03	1.466860514E+03	7.982435975E+01	0.000000000E+00	1.000000000E+00
	9000005	1	1	2	0	0	5.043274724E+01	-7.113115519E+02	6.153571264E+02	9.418980724E+02	1.000000000E-05	0.000000000E+00	0.000000000E+00

</event>
<event>
	4	1	3.267126300E-02	1.985090000E+03	7.818608000E-03	8.613623000E-02
	1	-1	0	0	501	0	0.000000000E+00	0.000000000E+00	9.124870497E+02	9.124870497E+02	5.040000000E-03	0.000000000E+00	-1.000000000E+00
	-2	-1	0	0	0	501	-0.000000000E+00	-0.000000000E+00	-1.079627308E+03	1.079627308E+03	2.550000000E-03	0.000000000E+00	1.000000000E+00
	-24	1	1	2	0	0	9.151586492E+02	3.798256347E+02	-9.715725986E+01	9.987964394E+02	7.982435975E+01	0.000000000E+00	-1.000000000E+00
	9000005	1	1	2	0	0	-9.151586492E+02	-3.798256347E+02	-6.998299798E+01	9.933179178E+02	1.000000000E-05	0.000000000E+00	0.000000000E+00

</event>
<event>
	4	1	3.267126300E-02	1.695963000E+03	7.818608000E-03	8.763670000E-02
	-2	-1	0	0	0	501	-0.000000000E+00	0.000000000E+00	1.102185157E+03	1.102185157E+03	5.040000000E-03	0.000000000E+00	1.000000000E+00
	1	-1	0	0	501	0	0.000000000E+00	-0.000000000E+00	-6.524060010E+02	6.524060010E+02	2.550000000E-03	0.000000000E+00	-1.000000000E+00
	-24	1	1	2	0	0	-4.740650362E+02	-4.425580547E+02	-3.368077060E+02	7.351235607E+02	7.982435975E+01	0.000000000E+00	-1.000000000E+00
	9000005	1	1	2	0	0	4.740650362E+02	4.425580547E+02	7.865868618E+02	1.019467597E+03	1.000000000E-05	0.000000000E+00	0.000000000E+00

</event>
<event>
	4	1	3.267126300E-02	1.438466000E+03	7.818608000E-03	8.926436000E-02
	1	-1	0	0	501	0	0.000000000E+00	0.000000000E+00	8.511962371E+02	8.511962371E+02	5.040000000E-03	0.000000000E+00	-1.000000000E+00
	-2	-1	0	0	0	501	-0.000000000E+00	-0.000000000E+00	-6.077282298E+02	6.077282298E+02	2.550000000E-03	0.000000000E+00	1.000000000E+00
	-24	1	1	2	0	0	-1.032449637E+02	6.521221297E+02	4.057144609E+02	7.790371922E+02	7.982435975E+01	0.000000000E+00	-1.000000000E+00
	9000005	1	1	2	0	0	1.032449637E+02	-6.521221297E+02	-1.622464536E+02	6.798872747E+02	1.000000000E-05	0.000000000E+00	0.000000000E+00

</event>
<event>
	4	1	3.267126300E-02	1.485229000E+03	7.818608000E-03	8.894336000E-02
	1	-1	0	0	501	0	0.000000000E+00	0.000000000E+00	8.094530362E+02	8.094530362E+02	5.040000000E-03	0.000000000E+00	-1.000000000E+00
	-2	-1	0	0	0	501	-0.000000000E+00	-0.000000000E+00	-6.812946830E+02	6.812946830E+02	2.550000000E-03	0.000000000E+00	1.000000000E+00
	-24	1	1	2	0	0	-6.022019547E+02	-1.974774646E+02	4.486365690E+02	7.805711003E+02	7.982435975E+01	0.000000000E+00	-1.000000000E+00
	9000005	1	1	2	0	0	6.022019547E+02	1.974774646E+02	-3.204782158E+02	7.101766189E+02	1.000000000E-05	0.000000000E+00	0.000000000E+00

</event>
<event>
	4	1	3.267126300E-02	1.868458000E+03	7.818608000E-03	8.670718000E-02
	1	-1	0	0	501	0	0.000000000E+00	0.000000000E+00	2.153827733E+03	2.153827733E+03	5.040000000E-03	0.000000000E+00	-1.000000000E+00
	-2	-1	0	0	0	501	-0.000000000E+00	-0.000000000E+00	-4.052243970E+02	4.052243970E+02	2.550000000E-03	0.000000000E+00	1.000000000E+00
	-24	1	1	2	0	0	6.863716836E+02	-3.323789919E+02	1.408656115E+02	7.796133216E+02	7.982435975E+01	0.000000000E+00	1.000000000E+00
	9000005	1	1	2	0	0	-6.863716836E+02	3.323789919E+02	1.607737725E+03	1.779438809E+03	1.000000000E-05	0.000000000E+00	0.000000000E+00

</event>
<event>
	4	1	3.267126300E-02	1.327612000E+03	7.818608000E-03	9.007950000E-02
	1	-1	0	0	501	0	0.000000000E+00	0.000000000E+00	5.162231545E+02	5.162231545E+02	5.040000000E-03	0.000000000E+00	-1.000000000E+00
	-2	-1	0	0	0	501	-0.000000000E+00	-0.000000000E+00	-8.535817310E+02	8.535817310E+02	2.550000000E-03	0.000000000E+00	1.000000000E+00
	-24	1	1	2	0	0	4.480222923E+01	6.579315615E+02	-1.169088737E+02	6.744781631E+02	7.982435975E+01	0.000000000E+00	1.000000000E+00
	9000005	1	1	2	0	0	-4.480222923E+01	-6.579315615E+02	-2.204497028E+02	6.953267224E+02	1.000000000E-05	0.000000000E+00	0.000000000E+00

</event>
<event>
	4	1	3.267126300E-02	2.454719000E+03	7.818608000E-03	8.419297000E-02
	-2	-1	0	0	0	501	-0.000000000E+00	0.000000000E+00	5.929242832E+02	5.929242832E+02	5.040000000E-03	0.000000000E+00	1.000000000E+00
	1	-1	0	0	501	0	0.000000000E+00	-0.000000000E+00	-2.540646316E+03	2.540646316E+03	2.550000000E-03	0.000000000E+00	-1.000000000E+00
	-24	1	1	2	0	0	-1.341921882E+02	-1.053078220E+03	-1.757911693E+03	2.055141535E+03	7.982435975E+01	0.000000000E+00	-1.000000000E+00
	9000005	1	1	2	0	0	1.341921882E+02	1.053078220E+03	-1.898103395E+02	1.078429064E+03	1.000000000E-05	0.000000000E+00	0.000000000E+00

</event>
<event>
	4	1	3.267126300E-02	1.578315000E+03	7.818608000E-03	8.833982000E-02
	-2	-1	0	0	0	501	-0.000000000E+00	0.000000000E+00	1.919793542E+02	1.919793542E+02	5.040000000E-03	0.000000000E+00	1.000000000E+00
	1	-1	0	0	501	0	0.000000000E+00	-0.000000000E+00	-3.243940483E+03	3.243940483E+03	2.550000000E-03	0.000000000E+00	-1.000000000E+00
	-24	1	1	2	0	0	6.022706112E+02	4.751886537E+02	-1.146260505E+03	1.381600239E+03	7.982435975E+01	0.000000000E+00	1.000000000E+00
	9000005	1	1	2	0	0	-6.022706112E+02	-4.751886537E+02	-1.905700624E+03	2.054319599E+03	1.000000000E-05	0.000000000E+00	0.000000000E+00

</event>
<event>
	6	1	3.267126300E-02	1.819059000E+03	7.818608000E-03	8.696229000E-02
	-1	-1	0	0	0	501	-0.000000000E+00	0.000000000E+00	3.017942044E+02	3.017942044E+02	2.550000000E-03	0.000000000E+00	1.000000000E+00
	2	-1	0	0	501	0	0.000000000E+00	-0.000000000E+00	-2.741085785E+03	2.741085785E+03	5.040000000E-03	0.000000000E+00	-1.000000000E+00
	24	2	1	2	0	0	-7.427959887E+02	3.170648944E+02	-5.288867294E+02	9.687722961E+02	8.076237423E+01	0.000000000E+00	0.000000000E+00
	-11	1	3	3	0	0	-5.778859239E+02	2.643516719E+02	-4.490193071E+02	7.781081452E+02	5.110000000E-04	0.000000000E+00	1.000000000E+00
	12	1	3	3	0	0	-1.649100648E+02	5.271322247E+01	-7.986742230E+01	1.906641509E+02	0.000000000E+00	0.000000000E+00	-1.000000000E+00
	9000005	1	1	2	0	0	7.427959887E+02	-3.170648944E+02	-1.910404852E+03	2.074107694E+03	1.000000000E-05	0.000000000E+00	0.000000000E+00

</event>
<event>
	4	1	3.267126300E-02	2.702564000E+03	7.818608000E-03	8.334174000E-02
	-2	-1	0	0	0	501	-0.000000000E+00	0.000000000E+00	1.096001130E+03	1.096001130E+03	5.040000000E-03	0.000000000E+00	1.000000000E+00
	1	-1	0	0	501	0	0.000000000E+00	-0.000000000E+00	-1.666023017E+03	1.666023017E+03	2.550000000E-03	0.000000000E+00	-1.000000000E+00
	-24	1	1	2	0	0	-9.836205352E+02	5.642992424E+02	4.635512229E+02	1.227678564E+03	7.982435975E+01	0.000000000E+00	1.000000000E+00
	9000005	1	1	2	0	0	9.836205352E+02	-5.642992424E+02	-1.033573110E+03	1.534345582E+03	1.000000000E-05	0.000000000E+00	0.000000000E+00

</event>
<event>
	4	1	3.267126300E-02	1.678712000E+03	7.818608000E-03	8.773600000E-02
	-2	-1	0	0	0	501	-0.000000000E+00	0.000000000E+00	2.635195782E+02	2.635195783E+02	5.040000000E-03	0.000000000E+00	1.000000000E+00
	1	-1	0	0	501	0	0.000000000E+00	-0.000000000E+00	-2.673495946E+03	2.673495946E+03	2.550000000E-03	0.000000000E+00	-1.000000000E+00
	-24	1	1	2	0	0	-5.220046659E+02	4.374271248E+02	-2.060353819E+03	2.171465208E+03	7.982435975E+01	0.000000000E+00	-1.000000000E+00
	9000005	1	1	2	0	0	5.220046659E+02	-4.374271248E+02	-3.496225490E+02	7.655503168E+02	1.000000000E-05	0.000000000E+00	0.000000000E+00

</event>
<event>
	4	1	3.267126300E-02	4.357121000E+03	7.818608000E-03	7.936139000E-02
	1	-1	0	0	501	0	0.000000000E+00	0.000000000E+00	3.007829490E+03	3.007829490E+03	5.040000000E-03	0.000000000E+00	-1.000000000E+00
	-2	-1	0	0	0	501	-0.000000000E+00	-0.000000000E+00	-1.577924071E+03	1.577924071E+03	2.550000000E-03	0.000000000E+00	1.000000000E+00
	-24	1	1	2	0	0	9.638974008E+02	1.155976210E+03	-9.414289199E+02	1.777087375E+03	7.982435975E+01	0.000000000E+00	1.000000000E+00
	9000005	1	1	2	0	0	-9.638974008E+02	-1.155976210E+03	2.371334339E+03	2.808666186E+03	1.000000000E-05	0.000000000E+00	0.000000000E+00

</event>
<event>
	4	1	3.267126300E-02	2.367034000E+03	7.818608000E-03	8.451950000E-02
	-2	-1	0	0	0	501	-0.000000000E+00	0.000000000E+00	8.064827283E+02	8.064827283E+02	5.040000000E-03	0.000000000E+00	1.000000000E+00
	1	-1	0	0	501	0	0.000000000E+00	-0.000000000E+00	-1.736816431E+03	1.736816431E+03	2.550000000E-03	0.000000000E+00	-1.000000000E+00
	-24	1	1	2	0	0	2.006970136E+02	-8.680117995E+02	3.692169684E+02	9.676863508E+02	7.982435975E+01	0.000000000E+00	1.000000000E+00
	9000005	1	1	2	0	0	-2.006970136E+02	8.680117995E+02	-1.299550671E+03	1.575612808E+03	1.000000000E-05	0.000000000E+00	0.000000000E+00

</event>
<event>
	4	1	3.267126300E-02	2.476776000E+03	7.818608000E-03	8.411306000E-02
	1	-1	0	0	501	0	0.000000000E+00	0.000000000E+00	3.077304887E+03	3.077304887E+03	5.040000000E-03	0.000000000E+00	-1.000000000E+00
	-2	-1	0	0	0	501	-0.000000000E+00	-0.000000000E+00	-4.983596488E+02	4.983596489E+02	2.550000000E-03	0.000000000E+00	1.000000000E+00
	-24	1	1	2	0	0	4.778418453E+02	9.989831387E+02	4.946661252E+02	1.215469722E+03	7.982435975E+01	0.000000000E+00	1.000000000E+00
	9000005	1	1	2	0	0	-4.778418453E+02	-9.989831387E+02	2.084279113E+03	2.360194814E+03	1.000000000E-05	0.000000000E+00	0.000000000E+00

</event>
<event>
	4	1	3.267126300E-02	1.568577000E+03	7.818608000E-03	8.840089000E-02
	-2	-1	0	0	0	501	-0.000000000E+00	0.000000000E+00	2.571064670E+02	2.571064670E+02	5.040000000E-03	0.000000000E+00	1.000000000E+00
	1	-1	0	0	501	0	0.000000000E+00	-0.000000000E+00	-2.392425666E+03	2.392425666E+03	2.550000000E-03	0.000000000E+00	-1.000000000E+00
	-24	1	1	2	0	0	3.740692310E+02	5.590330008E+02	-3.958695585E+02	7.845574047E+02	7.982435975E+01	0.000000000E+00	1.000000000E+00
	9000005	1	1	2	0	0	-3.740692310E+02	-5.590330008E+02	-1.739449640E+03	1.864974728E+03	1.000000000E-05	0.000000000E+00	0.000000000E+00

</event>
<event>
	4	1	3.267126300E-02	2.130481000E+03	7.818608000E-03	8.547934000E-02
	-2	-1	0	0	0	501	-0.000000000E+00	0.000000000E+00	6.681074494E+02	6.681074494E+02	5.040000000E-03	0.000000000E+00	1.000000000E+00
	1	-1	0	0	501	0	0.000000000E+00	-0.000000000E+00	-1.698435702E+03	1.698435702E+03	2.550000000E-03	0.000000000E+00	-1.000000000E+00
	-24	1	1	2	0	0	-9.846413033E+02	-2.948374091E+02	-2.114662805E+02	1.052396080E+03	7.982435975E+01	0.000000000E+00	1.000000000E+00
	9000005	1	1	2	0	0	9.846413033E+02	2.948374091E+02	-8.188619717E+02	1.314147070E+03	1.000000000E-05	0.000000000E+00	0.000000000E+00

</event>
<event>
	4	1	3.267126300E-02	1.841665000E+03	7.818608000E-03	8.684451000E-02
	1	-1	0	0	501	0	0.000000000E+00	0.000000000E+00	3.993667158E+02	3.993667158E+02	5.040000000E-03	0.000000000E+00	-1.000000000E+00
	-2	-1	0	0	0	501	-0.000000000E+00	-0.000000000E+00	-2.123193524E+03	2.123193524E+03	2.550000000E-03	0.000000000E+00	1.000000000E+00
	-24	1	1	2	0	0	3.592465088E+02	6.015001195E+02	-4.870715976E+01	7.068272516E+02	7.982435975E+01	0.000000000E+00	-1.000000000E+00
	9000005	1	1	2	0	0	-3.592465088E+02	-6.015001195E+02	-1.675119648E+03	1.815732988E+03	1.000000000E-05	0.000000000E+00	0.000000000E+00

</event>
<event>
	4	1	3.267126300E-02	1.759093000E+03	7.818608000E-03	8.728361000E-02
	1	-1	0	0	501	0	0.000000000E+00	0.000000000E+00	2.975146390E+03	2.975146390E+03	5.040000000E-03	0.000000000E+00	-1.000000000E+00
	-2	-1	0	0	0	501	-0.000000000E+00	-0.000000000E+00	-2.600215333E+02	2.600215333E+02	2.550000000E-03	0.000000000E+00	1.000000000E+00
	-24	1	1	2	0	0	8.024384532E+02	-3.493676572E+02	1.237615830E+03	1.517903192E+03	7.982435975E+01	0.000000000E+00	1.000000000E+00
	9000005	1	1	2	0	0	-8.024384532E+02	3.493676572E+02	1.477509027E+03	1.717264731E+03	1.000000000E-05	0.000000000E+00	0.000000000E+00

</event>
<event>
	4	1	3.267126300E-02	1.402249000E+03	7.818608000E-03	8.952192000E-02
	1	-1	0	0	501	0	0.000000000E+00	0.000000000E+00	3.070617559E+02	3.070617560E+02	5.040000000E-03	0.000000000E+00	-1.000000000E+00
	-2	-1	0	0	0	501	-0.000000000E+00	-0.000000000E+00	-1.600900561E+03	1.600900561E+03	2.550000000E-03	0.000000000E+00	1.000000000E+00
	-24	1	1	2	0	0	6.534962618E+02	-1.051411835E+02	-3.439080669E+02	7.501711269E+02	7.982435975E+01	0.000000000E+00	-1.000000000E+00
	9000005	1	1	2	0	0	-6.534962618E+02	1.051411835E+02	-9.499307386E+02	1.157791191E+03	1.000000000E-05	0.000000000E+00	0.000000000E+00

</event>
<event>
	4	1	3.267126300E-02	1.467187000E+03	7.818608000E-03	8.906571000E-02
	1	-1	0	0	501	0	0.000000000E+00	0.000000000E+00	9.647521853E+02	9.647521853E+02	5.040000000E-03	0.000000000E+00	-1.000000000E+00
	-2	-1	0	0	0	501	-0.000000000E+00	-0.000000000E+00	-5.578212929E+02	5.578212929E+02	2.550000000E-03	0.000000000E+00	1.000000000E+00
	-24	1	1	2	0	0	5.009283685E+02	-4.844880402E+02	-2.639736019E+01	7.019448984E+02	7.982435975E+01	0.000000000E+00	-1.000000000E+00
	9000005	1	1	2	0	0	-5.009283685E+02	4.844880402E+02	4.333282526E+02	8.206285798E+02	1.000000000E-05	0.000000000E+00	0.000000000E+00

</event>
<event>
	6	1	3.267126300E-02	1.869266000E+03	7.818608000E-03	8.670308000E-02
	2	-1	0	0	501	0	0.000000000E+00	0.000000000E+00	1.270770121E+03	1.270770121E+03	2.550000000E-03	0.000000000E+00	-1.000000000E+00
	-1	-1	0	0	0	501	-0.000000000E+00	-0.000000000E+00	-6.874088695E+02	6.874088696E+02	5.040000000E-03	0.000000000E+00	1.000000000E+00
	24	2	1	2	0	0	5.252679452E+02	-6.560521107E+02	-1.321382825E+02	8.544351938E+02	7.929809870E+01	0.000000000E+00	0.000000000E+00
	-11	1	3	3	0	0	4.236590761E+02	-4.886085622E+02	-1.234525898E+02	6.583812586E+02	5.110000000E-04	0.000000000E+00	1.000000000E+00
	12	1	3	3	0	0	1.016088691E+02	-1.674435485E+02	-8.685692631E+00	1.960539351E+02	0.000000000E+00	0.000000000E+00	-1.000000000E+00
	9000005	1	1	2	0	0	-5.252679452E+02	6.560521107E+02	7.154995343E+02	1.103743797E+03	1.000000000E-05	0.000000000E+00	0.000000000E+00

</event>
<event>
	4	1	3.267126300E-02	1.268756000E+03	7.818608000E-03	9.054715000E-02
	1	-1	0	0	501	0	0.000000000E+00	0.000000000E+00	2.415738936E+03	2.415738936E+03	5.040000000E-03	0.000000000E+00	-1.000000000E+00
	-2	-1	0	0	0	501	-0.000000000E+00	-0.000000000E+00	-1.665890553E+02	1.665890553E+02	2.550000000E-03	0.000000000E+00	1.000000000E+00
	-24	1	1	2	0	0	6.308416181E+02	-2.625055545E+01	1.179120548E+03	1.339905755E+03	7.982435975E+01	0.000000000E+00	1.000000000E+00
	9000005	1	1	2	0	0	-6.308416181E+02	2.625055545E+01	1.070029333E+03	1.242422236E+03	1.000000000E-05	0.000000000E+00	0.000000000E+00

</event>
<event>
	4	1	3.267126300E-02	1.290730000E+03	7.818608000E-03	9.036949000E-02
	-2	-1	0	0	0	501	-0.000000000E+00	0.000000000E+00	4.953873562E+02	4.953873562E+02	5.040000000E-03	0.000000000E+00	1.000000000E+00
	1	-1	0	0	501	0	0.000000000E+00	-0.000000000E+00	-8.407481671E+02	8.407481671E+02	2.550000000E-03	0.000000000E+00	-1.000000000E+00
	-24	1	1	2	0	0	4.863212501E+01	-6.349609580E+02	-8.205928593E+01	6.470287139E+02	7.982435975E+01	0.000000000E+00	1.000000000E+00
	9000005	1	1	2	0	0	-4.863212501E+01	6.349609580E+02	-2.633015250E+02	6.891068095E+02	1.000000000E-05	0.000000000E+00	0.000000000E+00

</event>
<event>
	4	1	3.267126300E-02	1.844408000E+03	7.818608000E-03	8.683034000E-02
	1	-1	0	0	501	0	0.000000000E+00	0.000000000E+00	9.377983990E+02	9.377983990E+02	5.040000000E-03	0.000000000E+00	-1.000000000E+00
	-2	-1	0	0	0	501	-0.000000000E+00	-0.000000000E+00	-9.068688558E+02	9.068688558E+02	2.550000000E-03	0.000000000E+00	1.000000000E+00
	-24	1	1	2	0	0	-3.293497940E+02	-8.004623442E+02	3.286925677E+02	9.293126404E+02	7.982435975E+01	0.000000000E+00	-1.000000000E+00
	9000005	1	1	2	0	0	3.293497940E+02	8.004623442E+02	-2.977630245E+02	9.153546143E+02	1.000000000E-05	0.000000000E+00	0.000000000E+00

</event>
<event>
	4	1	3.267126300E-02	2.310695000E+03	7.818608000E-03	8.473716000E-02
	1	-1	0	0	501	0	0.000000000E+00	0.000000000E+00	1.091145065E+03	1.091145065E+03	5.040000000E-03	0.000000000E+00	-1.000000000E+00
	-2	-1	0	0	0	501	-0.000000000E+00	-0.000000000E+00	-1.223327996E+03	1.223327996E+03	2.550000000E-03	0.000000000E+00	1.000000000E+00
	-24	1	1	2	0	0	4.702424556E+02	8.849530287E+02	-6.392721705E+02	1.191348256E+03	7.982435975E+01	0.000000000E+00	1.000000000E+00
	9000005	1	1	2	0	0	-4.702424556E+02	-8.849530287E+02	5.070892394E+02	1.123124805E+03	1.000000000E-05	0.000000000E+00	0.000000000E+00

</event>
<event>
	4	1	3.267126300E-02	2.015149000E+03	7.818608000E-03	8.599571000E-02
	1	-1	0	0	501	0	0.000000000E+00	0.000000000E+00	7.501199179E+02	7.501199179E+02	5.040000000E-03	0.000000000E+00	-1.000000000E+00
	-2	-1	0	0	0	501	-0.000000000E+00	-0.000000000E+00	-1.353391759E+03	1.353391759E+03	2.550000000E-03	0.000000000E+00	1.000000000E+00
	-24	1	1	2	0	0	-2.104635326E+02	7.702849599E+02	-9.408126742E+02	1.236581673E+03	7.982435975E+01	0.000000000E+00	1.000000000E+00
	9000005	1	1	2	0	0	2.104635326E+02	-7.702849599E+02	3.375408328E+02	8.669300040E+02	1.000000000E-05	0.000000000E+00	0.000000000E+00

</event>
<event>
	4	1	3.267126300E-02	2.071064000E+03	7.818608000E-03	8.574098000E-02
	-2	-1	0	0	0	501	-0.000000000E+00	0.000000000E+00	3.440096453E+02	3.440096453E+02	5.040000000E-03	0.000000000E+00	1.000000000E+00
	1	-1	0	0	501	0	0.000000000E+00	-0.000000000E+00	-3.117140371E+03	3.117140371E+03	2.550000000E-03	0.000000000E+00	-1.000000000E+00
	-24	1	1	2	0	0	9.512979654E+01	-6.918453473E+02	-1.142991540E+02	7.121347399E+02	7.982435975E+01	0.000000000E+00	1.000000000E+00
	9000005	1	1	2	0	0	-9.512979654E+01	6.918453473E+02	-2.658831572E+03	2.749015276E+03	1.000000000E-05	0.000000000E+00	0.000000000E+00

</event>
<event>
	4	1	3.267126300E-02	3.742175000E+03	7.818608000E-03	8.058679000E-02
	-2	-1	0	0	0	501	-0.000000000E+00	0.000000000E+00	2.698760763E+03	2.698760763E+03	5.040000000E-03	0.000000000E+00	1.000000000E+00
	1	-1	0	0	501	0	0.000000000E+00	-0.000000000E+00	-1.297250563E+03	1.297250563E+03	2.550000000E-03	0.000000000E+00	-1.000000000E+00
	-24	1	1	2	0	0	8.775637979E+02	1.634136656E+03	9.566022879E+02	2.088535538E+03	7.982435975E+01	0.000000000E+00	-1.000000000E+00
	9000005	1	1	2	0	0	-8.775637979E+02	-1.634136656E+03	4.449079127E+02	1.907475788E+03	1.000000000E-05	0.000000000E+00	0.000000000E+00

</event>
<event>
	4	1	3.267126300E-02	1.780049000E+03	7.818608000E-03	8.716982000E-02
	-2	-1	0	0	0	501	-0.000000000E+00	0.000000000E+00	2.373794690E+02	2.373794691E+02	5.040000000E-03	0.000000000E+00	1.000000000E+00
	1	-1	0	0	501	0	0.000000000E+00	-0.000000000E+00	-3.337035330E+03	3.337035330E+03	2.550000000E-03	0.000000000E+00	-1.000000000E+00
	-24	1	1	2	0	0	5.900208287E+02	-1.503962232E+02	-2.543488466E+02	6.646870440E+02	7.982435975E+01	0.000000000E+00	1.000000000E+00
	9000005	1	1	2	0	0	-5.900208287E+02	1.503962232E+02	-2.845307014E+03	2.909727755E+03	1.000000000E-05	0.000000000E+00	0.000000000E+00

</event>
<event>
	4	1	3.267126300E-02	1.278436000E+03	7.818608000E-03	9.046843000E-02
	1	-1	0	0	501	0	0.000000000E+00	0.000000000E+00	7.398257616E+02	7.398257616E+02	5.040000000E-03	0.000000000E+00	-1.000000000E+00
	-2	-1	0	0	0	501	-0.000000000E+00	-0.000000000E+00	-5.522914620E+02	5.522914620E+02	2.550000000E-03	0.000000000E+00	1.000000000E+00
	-24	1	1	2	0	0	2.458522399E+02	-5.846963626E+02	3.779991587E+01	6.404013760E+02	7.982435975E+01	0.000000000E+00	1.000000000E+00
	9000005	1	1	2	0	0	-2.458522399E+02	5.846963626E+02	1.497343838E+02	6.517158476E+02	1.000000000E-05	0.000000000E+00	0.000000000E+00

</event>
<event>
	4	1	3.267126300E-02	1.384817000E+03	7.818608000E-03	8.964883000E-02
	-2	-1	0	0	0	501	-0.000000000E+00	0.000000000E+00	2.046282651E+02	2.046282651E+02	5.040000000E-03	0.000000000E+00	1.000000000E+00
	1	-1	0	0	501	0	0.000000000E+00	-0.000000000E+00	-2.342929634E+03	2.342929634E+03	2.550000000E-03	0.000000000E+00	-1.000000000E+00
	-24	1	1	2	0	0	-6.881619393E+02	-4.657487372E+01	-1.114365105E+03	1.312980422E+03	7.982435975E+01	0.000000000E+00	1.000000000E+00
	9000005	1	1	2	0	0	6.881619393E+02	4.657487372E+01	-1.023936263E+03	1.234577476E+03	1.000000000E-05	0.000000000E+00	0.000000000E+00

</event>
<event>
	4	1	3.267126300E-02	1.515267000E+03	7.818608000E-03	8.874364000E-02
	1	-1	0	0	501	0	0.000000000E+00	0.000000000E+00	1.903082386E+03	1.903082386E+03	5.040000000E-03	0.000000000E+00	-1.000000000E+00
	-2	-1	0	0	0	501	-0.000000000E+00	-0.000000000E+00	-3.016204374E+02	3.016204375E+02	2.550000000E-03	0.000000000E+00	1.000000000E+00
	-24	1	1	2	0	0	1.554900566E+02	-6.436742399E+02	1.332245335E+03	1.489880279E+03	7.982435975E+01	0.000000000E+00	-1.000000000E+00
	9000005	1	1	2	0	0	-1.554900566E+02	6.436742399E+02	2.692166133E+02	7.148225442E+02	1.000000000E-05	0.000000000E+00	0.000000000E+00

</event>
<event>
	4	1	3.267126300E-02	1.650485000E+03	7.818608000E-03	8.790120000E-02
	1	-1	0	0	501	0	0.000000000E+00	0.000000000E+00	2.169521339E+03	2.169521339E+03	5.040000000E-03	0.000000000E+00	-1.000000000E+00
	-2	-1	0	0	0	501	-0.000000000E+00	-0.000000000E+00	-3.139057921E+02	3.139057921E+02	2.550000000E-03	0.000000000E+00	1.000000000E+00
	-24	1	1	2	0	0	-6.685307905E+02	2.010674368E+02	1.586676844E+03	1.735303105E+03	7.982435975E+01	0.000000000E+00	-1.000000000E+00
	9000005	1	1	2	0	0	6.685307905E+02	-2.010674368E+02	2.689387030E+02	7.481240257E+02	1.000000000E-05	0.000000000E+00	0.000000000E+00

</event>
<event>
	4	1	3.267126300E-02	1.517784000E+03	7.818608000E-03	8.872712000E-02
	-4	-1	0	0	0	501	-0.000000000E+00	0.000000000E+00	5.393782749E+02	5.393797701E+02	1.010000000E-01	0.000000000E+00	1.000000000E+00
	3	-1	0	0	501	0	0.000000000E+00	-0.000000000E+00	-1.067740586E+03	1.067740590E+03	1.270000000E+00	0.000000000E+00	-1.000000000E+00
	-24	1	1	2	0	0	-4.522238691E+02	-5.223210376E+02	-5.919778520E+02	9.133101334E+02	7.982435975E+01	0.000000000E+00	-1.000000000E+00
	9000005	1	1	2	0	0	4.522238691E+02	5.223210376E+02	6.361554126E+01	6.938102271E+02	1.000000000E-05	0.000000000E+00	0.000000000E+00

</event>
<event>
	4	1	3.267126300E-02	1.601436000E+03	7.818608000E-03	8.819667000E-02
	1	-1	0	0	501	0	0.000000000E+00	0.000000000E+00	1.147285644E+03	1.147285644E+03	5.040000000E-03	0.000000000E+00	-1.000000000E+00
	-2	-1	0	0	0	501	-0.000000000E+00	-0.000000000E+00	-5.588399351E+02	5.588399351E+02	2.550000000E-03	0.000000000E+00	1.000000000E+00
	-24	1	1	2	0	0	1.983622923E+02	-7.451722724E+02	7.316768279E+01	7.786878404E+02	7.982435975E+01	0.000000000E+00	1.000000000E+00
	9000005	1	1	2	0	0	-1.983622923E+02	7.451722724E+02	5.152780257E+02	9.274377383E+02	1.000000000E-05	0.000000000E+00	0.000000000E+00

</event>
<event>
	6	1	3.267126300E-02	1.579557000E+03	7.818608000E-03	8.833206000E-02
	-1	-1	0	0	0	501	-0.000000000E+00	0.000000000E+00	4.382979861E+02	4.382979861E+02	2.550000000E-03	0.000000000E+00	1.000000000E+00
	2	-1	0	0	501	0	0.000000000E+00	-0.000000000E+00	-1.423119539E+03	1.423119539E+03	5.040000000E-03	0.000000000E+00	-1.000000000E+00
	24	2	1	2	0	0	-4.390065360E+02	-5.807966036E+02	-1.394895484E+02	7.457842381E+02	8.176406499E+01	0.000000000E+00	0.000000000E+00
	-11	1	3	3	0	0	-3.492687787E+02	-5.097786015E+02	-1.244949484E+02	6.303664764E+02	5.110000000E-04	0.000000000E+00	1.000000000E+00
	12	1	3	3	0	0	-8.973775725E+01	-7.101800211E+01	-1.499459994E+01	1.154177617E+02	0.000000000E+00	0.000000000E+00	-1.000000000E+00
	9000005	1	1	2	0	0	4.390065360E+02	5.807966036E+02	-8.453320049E+02	1.115633287E+03	1.000000000E-05	0.000000000E+00	0.000000000E+00

</event>
<event>
	4	1	3.267126300E-02	1.978823000E+03	7.818608000E-03	8.616586000E-02
	-2	-1	0	0	0	501	-0.000000000E+00	0.000000000E+00	5.355778646E+02	5.355778646E+02	5.040000000E-03	0.000000000E+00	1.000000000E+00
	1	-1	0	0	501	0	0.000000000E+00	-0.000000000E+00	-1.827810726E+03	1.827810726E+03	2.550000000E-03	0.000000000E+00	-1.000000000E+00
	-24	1	1	2	0	0	-6.736328451E+02	7.195666225E+02	-7.245170385E+02	1.225909541E+03	7.982435975E+01	0.000000000E+00	-1.000000000E+00
	9000005	1	1	2	0	0	6.736328451E+02	-7.195666225E+02	-5.677158231E+02	1.137479050E+03	1.000000000E-05	0.000000000E+00	0.000000000E+00

</event>
<event>
	4	1	3.267126300E-02	2.112594000E+03	7.818608000E-03	8.555716000E-02
	-2	-1	0	0	0	501	-0.000000000E+00	0.000000000E+00	6.714621546E+02	6.714621546E+02	5.040000000E-03	0.000000000E+00	1.000000000E+00
	1	-1	0	0	501	0	0.000000000E+00	-0.000000000E+00	-1.661692196E+03	1.661692196E+03	2.550000000E-03	0.000000000E+00	-1.000000000E+00
	-24	1	1	2	0	0	6.888909008E+02	1.942144492E+02	-1.351495039E+03	1.531404811E+03	7.982435975E+01	0.000000000E+00	-1.000000000E+00
	9000005	1	1	2	0	0	-6.888909008E+02	-1.942144492E+02	3.612649979E+02	8.017495396E+02	1.000000000E-05	0.000000000E+00	0.000000000E+00

</event>
<event>
	4	1	3.267126300E-02	2.652980000E+03	7.818608000E-03	8.350425000E-02
	-4	-1	0	0	0	501	-0.000000000E+00	0.000000000E+00	2.400270488E+03	2.400270824E+03	5.040000000E-03	0.000000000E+00	1.000000000E+00
	1	-1	0	0	501	0	0.000000000E+00	-0.000000000E+00	-7.330735990E+02	7.330735990E+02	1.270000000E+00	0.000000000E+00	-1.000000000E+00
	-24	1	1	2	0	0	1.128691724E+03	6.905195888E+02	9.229615625E+02	1.615237532E+03	7.982435975E+01	0.000000000E+00	-1.000000000E+00
	9000005	1	1	2	0	0	-1.128691724E+03	-6.905195888E+02	7.442353267E+02	1.518106891E+03	1.000000000E-05	0.000000000E+00	0.000000000E+00

</event>
<event>
	4	1	3.267126300E-02	1.316654000E+03	7.818608000E-03	9.016462000E-02
	-2	-1	0	0	0	501	-0.000000000E+00	0.000000000E+00	1.547061288E+03	1.547061288E+03	5.040000000E-03	0.000000000E+00	1.000000000E+00
	1	-1	0	0	501	0	0.000000000E+00	-0.000000000E+00	-2.801402729E+02	2.801402729E+02	2.550000000E-03	0.000000000E+00	-1.000000000E+00
	-24	1	1	2	0	0	-6.169182616E+02	-8.753746645E+01	3.515072356E+02	7.198473550E+02	7.982435975E+01	0.000000000E+00	-1.000000000E+00
	9000005	1	1	2	0	0	6.169182616E+02	8.753746645E+01	9.154137793E+02	1.107354206E+03	1.000000000E-05	0.000000000E+00	0.000000000E+00

</event>
<event>
	4	1	3.267126300E-02	1.618617000E+03	7.818608000E-03	8.809192000E-02
	1	-1	0	0	501	0	0.000000000E+00	0.000000000E+00	1.255173874E+03	1.255173874E+03	5.040000000E-03	0.000000000E+00	-1.000000000E+00
	-2	-1	0	0	0	501	-0.000000000E+00	-0.000000000E+00	-5.218245395E+02	5.218245395E+02	2.550000000E-03	0.000000000E+00	1.000000000E+00
	-24	1	1	2	0	0	2.322853392E+02	7.596609341E+02	5.257376927E+02	9.559358051E+02	7.982435975E+01	0.000000000E+00	1.000000000E+00
	9000005	1	1	2	0	0	-2.322853392E+02	-7.596609341E+02	2.076116422E+02	8.210626088E+02	1.000000000E-05	0.000000000E+00	0.000000000E+00

</event>
<event>
	4	1	3.267126300E-02	1.205952000E+03	7.818608000E-03	9.107662000E-02
	1	-1	0	0	501	0	0.000000000E+00	0.000000000E+00	1.856624139E+02	1.856624140E+02	5.040000000E-03	0.000000000E+00	-1.000000000E+00
	-2	-1	0	0	0	501	-0.000000000E+00	-0.000000000E+00	-1.958286640E+03	1.958286640E+03	2.550000000E-03	0.000000000E+00	1.000000000E+00
	-24	1	1	2	0	0	-5.978427551E+02	5.342095530E+01	-9.105806743E+02	1.093525880E+03	7.982435975E+01	0.000000000E+00	-1.000000000E+00
	9000005	1	1	2	0	0	5.978427551E+02	-5.342095530E+01	-8.620435520E+02	1.050423174E+03	1.000000000E-05	0.000000000E+00	0.000000000E+00

</event>
<event>
	4	1	3.267126300E-02	2.409997000E+03	7.818608000E-03	8.435770000E-02
	-2	-1	0	0	0	501	-0.000000000E+00	0.000000000E+00	1.060205129E+03	1.060205129E+03	5.040000000E-03	0.000000000E+00	1.000000000E+00
	1	-1	0	0	501	0	0.000000000E+00	-0.000000000E+00	-1.369566136E+03	1.369566136E+03	2.550000000E-03	0.000000000E+00	-1.000000000E+00
	-24	1	1	2	0	0	-6.435357959E+02	6.123535850E+02	-9.737472188E+02	1.320481279E+03	7.982435975E+01	0.000000000E+00	-1.000000000E+00
	9000005	1	1	2	0	0	6.435357959E+02	-6.123535850E+02	6.643862122E+02	1.109289986E+03	1.000000000E-05	0.000000000E+00	0.000000000E+00

</event>
<event>
	4	1	3.267126300E-02	1.384206000E+03	7.818608000E-03	8.965331000E-02
	3	-1	0	0	501	0	0.000000000E+00	0.000000000E+00	3.301875753E+02	3.301875908E+02	1.010000000E-01	0.000000000E+00	-1.000000000E+00
	-4	-1	0	0	0	501	-0.000000000E+00	-0.000000000E+00	-1.450708605E+03	1.450709161E+03	1.270000000E+00	0.000000000E+00	1.000000000E+00
	-24	1	1	2	0	0	3.013597624E+02	-6.132256958E+02	-4.403233109E+02	8.167741468E+02	7.982435975E+01	0.000000000E+00	-1.000000000E+00
	9000005	1	1	2	0	0	-3.013597624E+02	6.132256958E+02	-6.801977188E+02	9.641226048E+02	1.000000000E-05	0.000000000E+00	0.000000000E+00

</event>
<event>
	4	1	3.267126300E-02	1.629191000E+03	7.818608000E-03	8.802813000E-02
	-2	-1	0	0	0	501	-0.000000000E+00	0.000000000E+00	4.313767928E+02	4.313767928E+02	5.040000000E-03	0.000000000E+00	1.000000000E+00
	1	-1	0	0	501	0	0.000000000E+00	-0.000000000E+00	-1.538251456E+03	1.538251456E+03	2.550000000E-03	0.000000000E+00	-1.000000000E+00
	-24	1	1	2	0	0	-6.803530631E+02	8.044698799E+01	-2.636316886E+01	6.902310870E+02	7.982435975E+01	0.000000000E+00	1.000000000E+00
	9000005	1	1	2	0	0	6.803530631E+02	-8.044698799E+01	-1.080511494E+03	1.279397162E+03	1.000000000E-05	0.000000000E+00	0.000000000E+00

</event>
<event>
	4	1	3.267126300E-02	1.270535000E+03	7.818608000E-03	9.053263000E-02
	1	-1	0	0	501	0	0.000000000E+00	0.000000000E+00	4.408411375E+02	4.408411375E+02	5.040000000E-03	0.000000000E+00	-1.000000000E+00
	-2	-1	0	0	0	501	-0.000000000E+00	-0.000000000E+00	-9.154428055E+02	9.154428055E+02	2.550000000E-03	0.000000000E+00	1.000000000E+00
	-24	1	1	2	0	0	-4.146848310E+02	-4.741573296E+02	-3.022557077E+02	7.032205369E+02	7.982435975E+01	0.000000000E+00	1.000000000E+00
	9000005	1	1	2	0	0	4.146848310E+02	4.741573296E+02	-1.723459603E+02	6.530634061E+02	1.000000000E-05	0.000000000E+00	0.000000000E+00

</event>
<event>
	4	1	3.267126300E-02	2.524456000E+03	7.818608000E-03	8.394324000E-02
	1	-1	0	0	501	0	0.000000000E+00	0.000000000E+00	6.008741915E+02	6.008741915E+02	5.040000000E-03	0.000000000E+00	-1.000000000E+00
	-2	-1	0	0	0	501	-0.000000000E+00	-0.000000000E+00	-2.651502208E+03	2.651502208E+03	2.550000000E-03	0.000000000E+00	1.000000000E+00
	-24	1	1	2	0	0	-2.004406891E+02	-1.144421031E+03	-3.949714354E+02	1.229735878E+03	7.982435975E+01	0.000000000E+00	-1.000000000E+00
	9000005	1	1	2	0	0	2.004406891E+02	1.144421031E+03	-1.655656581E+03	2.022640521E+03	1.000000000E-05	0.000000000E+00	0.000000000E+00

</event>
<event>
	6	1	3.267126300E-02	5.799447000E+03	7.818608000E-03	7.715777000E-02
	-1	-1	0	0	0	501	-0.000000000E+00	0.000000000E+00	2.150564816E+03	2.150564816E+03	2.550000000E-03	0.000000000E+00	1.000000000E+00
	2	-1	0	0	501	0	0.000000000E+00	-0.000000000E+00	-3.909855323E+03	3.909855323E+03	5.040000000E-03	0.000000000E+00	-1.000000000E+00
	24	2	1	2	0	0	5.367301255E+02	2.522069119E+03	5.048607103E+02	2.628905516E+03	8.572053495E+01	0.000000000E+00	0.000000000E+00
	-11	1	3	3	0	0	2.311161000E+02	1.291123106E+03	2.604176605E+02	1.337247504E+03	5.110000000E-04	0.000000000E+00	1.000000000E+00
	12	1	3	3	0	0	3.056140255E+02	1.230946012E+03	2.444430498E+02	1.291658013E+03	0.000000000E+00	0.000000000E+00	-1.000000000E+00
	9000005	1	1	2	0	0	-5.367301255E+02	-2.522069119E+03	-2.264151218E+03	3.431514622E+03	1.000000000E-05	0.000000000E+00	0.000000000E+00

</event>
<event>
	4	1	3.267126300E-02	1.610215000E+03	7.818608000E-03	8.814297000E-02
	1	-1	0	0	501	0	0.000000000E+00	0.000000000E+00	8.153949870E+02	8.153949871E+02	5.040000000E-03	0.000000000E+00	-1.000000000E+00
	-2	-1	0	0	0	501	-0.000000000E+00	-0.000000000E+00	-7.949495606E+02	7.949495606E+02	2.550000000E-03	0.000000000E+00	1.000000000E+00
	-24	1	1	2	0	0	-7.317481580E+02	2.043843536E+02	2.706291631E+02	8.104569100E+02	7.982435975E+01	0.000000000E+00	-1.000000000E+00
	9000005	1	1	2	0	0	7.317481580E+02	-2.043843536E+02	-2.501837367E+02	7.998876376E+02	1.000000000E-05	0.000000000E+00	0.000000000E+00

</event>
<event>
	4	1	3.267126300E-02	1.319516000E+03	7.818608000E-03	9.014231000E-02
	-2	-1	0	0	0	501	-0.000000000E+00	0.000000000E+00	2.634354452E+02	2.634354452E+02	5.040000000E-03	0.000000000E+00	1.000000000E+00
	1	-1	0	0	501	0	0.000000000E+00	-0.000000000E+00	-1.652322828E+03	1.652322828E+03	2.550000000E-03	0.000000000E+00	-1.000000000E+00
	-24	1	1	2	0	0	5.598331389E+01	-6.526300904E+02	-7.770367247E+02	1.019420505E+03	7.982435975E+01	0.000000000E+00	1.000000000E+00
	9000005	1	1	2	0	0	-5.598331389E+01	6.526300904E+02	-6.118506578E+02	8.963377677E+02	1.000000000E-05	0.000000000E+00	0.000000000E+00

</event>
<event>
	4	1	3.267126300E-02	1.602666000E+03	7.818608000E-03	8.818912000E-02
	1	-1	0	0	501	0	0.000000000E+00	0.000000000E+00	1.679717617E+02	1.679717617E+02	5.040000000E-03	0.000000000E+00	-1.000000000E+00
	-2	-1	0	0	0	501	-0.000000000E+00	-0.000000000E+00	-3.822871443E+03	3.822871443E+03	2.550000000E-03	0.000000000E+00	1.000000000E+00
	-24	1	1	2	0	0	-6.504995341E+02	-1.277091866E+02	-2.944190469E+03	3.018954906E+03	7.982435975E+01	0.000000000E+00	1.000000000E+00
	9000005	1	1	2	0	0	6.504995341E+02	1.277091866E+02	-7.107092127E+02	9.718882987E+02	1.000000000E-05	0.000000000E+00	0.000000000E+00

</event>
<event>
	4	1	3.267126300E-02	3.737710000E+03	7.818608000E-03	8.059656000E-02
	1	-1	0	0	501	0	0.000000000E+00	0.000000000E+00	1.705827883E+03	1.705827883E+03	5.040000000E-03	0.000000000E+00	-1.000000000E+00
	-2	-1	0	0	0	501	-0.000000000E+00	-0.000000000E+00	-2.047463243E+03	2.047463243E+03	2.550000000E-03	0.000000000E+00	1.000000000E+00
	-24	1	1	2	0	0	-1.128007305E+03	-1.437110887E+02	1.317301542E+03	1.742041514E+03	7.982435975E+01	0.000000000E+00	-1.000000000E+00
	9000005	1	1	2	0	0	1.128007305E+03	1.437110887E+02	-1.658936902E+03	2.011249612E+03	1.000000000E-05	0.000000000E+00	0.000000000E+00

</event>
<event>
	4	1	3.267126300E-02	1.290884000E+03	7.818608000E-03	9.036825000E-02
	-2	-1	0	0	0	501	-0.000000000E+00	0.000000000E+00	5.012988759E+02	5.012988759E+02	5.040000000E-03	0.000000000E+00	1.000000000E+00
	1	-1	0	0	501	0	0.000000000E+00	-0.000000000E+00	-8.310324647E+02	8.310324647E+02	2.550000000E-03	0.000000000E+00	-1.000000000E+00
	-24	1	1	2	0	0	-4.074992240E+02	-4.796717822E+02	-2.984228854E+01	6.351402418E+02	7.982435975E+01	0.000000000E+00	-1.000000000E+00
	9000005	1	1	2	0	0	4.074992240E+02	4.796717822E+02	-2.998913003E+02	6.971910987E+02	1.000000000E-05	0.000000000E+00	0.000000000E+00

</event>
<event>
	4	1	3.267126300E-02	1.801304000E+03	7.818608000E-03	8.705606000E-02
	1	-1	0	0	501	0	0.000000000E+00	0.000000000E+00	1.491786644E+03	1.491786644E+03	5.040000000E-03	0.000000000E+00	-1.000000000E+00
	-2	-1	0	0	0	501	-0.000000000E+00	-0.000000000E+00	-5.437602000E+02	5.437602000E+02	2.550000000E-03	0.000000000E+00	1.000000000E+00
	-24	1	1	2	0	0	3.220462540E+02	7.533990862E+02	8.927037455E+02	1.214337630E+03	7.982435975E+01	0.000000000E+00	-1.000000000E+00
	9000005	1	1	2	0	0	-3.220462540E+02	-7.533990862E+02	5.532269823E+01	8.212092143E+02	1.000000000E-05	0.000000000E+00	0.000000000E+00

</event>
<event>
	4	1	3.267126300E-02	1.888802000E+03	7.818608000E-03	8.660451000E-02
	-2	-1	0	0	0	501	-0.000000000E+00	0.000000000E+00	6.101510254E+02	6.101510254E+02	5.040000000E-03	0.000000000E+00	1.000000000E+00
	1	-1	0	0	501	0	0.000000000E+00	-0.000000000E+00	-1.461757794E+03	1.461757794E+03	2.550000000E-03	0.000000000E+00	-1.000000000E+00
	-24	1	1	2	0	0	7.957687186E+01	8.517932075E+02	7.839235508E+00	8.592540538E+02	7.982435975E+01	0.000000000E+00	-1.000000000E+00
	9000005	1	1	2	0	0	-7.957687186E+01	-8.517932075E+02	-8.594460043E+02	1.212654766E+03	1.000000000E-05	0.000000000E+00	0.000000000E+00

</event>
<event>
	4	1	3.267126300E-02	1.620424000E+03	7.818608000E-03	8.808098000E-02
	1	-1	0	0	501	0	0.000000000E+00	0.000000000E+00	1.500323487E+03	1.500323487E+03	5.040000000E-03	0.000000000E+00	-1.000000000E+00
	-2	-1	0	0	0	501	-0.000000000E+00	-0.000000000E+00	-4.375345870E+02	4.375345870E+02	2.550000000E-03	0.000000000E+00	1.000000000E+00
	-24	1	1	2	0	0	-6.414587562E+01	7.690212287E+02	8.200798345E+02	1.128898227E+03	7.982435975E+01	0.000000000E+00	-1.000000000E+00
	9000005	1	1	2	0	0	6.414587562E+01	-7.690212287E+02	2.427090653E+02	8.089598469E+02	1.000000000E-05	0.000000000E+00	0.000000000E+00

</event>
<event>
	4	1	3.267126300E-02	2.027552000E+03	7.818608000E-03	8.593847000E-02
	-2	-1	0	0	0	501	-0.000000000E+00	0.000000000E+00	1.265151503E+03	1.265151503E+03	5.040000000E-03	0.000000000E+00	1.000000000E+00
	1	-1	0	0	501	0	0.000000000E+00	-0.000000000E+00	-8.123464337E+02	8.123464338E+02	2.550000000E-03	0.000000000E+00	-1.000000000E+00
	-24	1	1	2	0	0	-8.524693121E+02	3.008925201E+02	6.932911760E+02	1.142044141E+03	7.982435975E+01	0.000000000E+00	1.000000000E+00
	9000005	1	1	2	0	0	8.524693121E+02	-3.008925201E+02	-2.404861067E+02	9.354537959E+02	1.000000000E-05	0.000000000E+00	0.000000000E+00

</event>
<event>
	4	1	3.267126300E-02	1.612859000E+03	7.818608000E-03	8.812687000E-02
	-2	-1	0	0	0	501	-0.000000000E+00	0.000000000E+00	3.464397691E+02	3.464397691E+02	5.040000000E-03	0.000000000E+00	1.000000000E+00
	1	-1	0	0	501	0	0.000000000E+00	-0.000000000E+00	-1.877176384E+03	1.877176384E+03	2.550000000E-03	0.000000000E+00	-1.000000000E+00
	-24	1	1	2	0	0	-7.821592976E+02	1.404993468E+02	-9.396235880E+02	1.233198138E+03	7.982435975E+01	0.000000000E+00	-1.000000000E+00
	9000005	1	1	2	0	0	7.821592976E+02	-1.404993468E+02	-5.911130269E+02	9.904180147E+02	1.000000000E-05	0.000000000E+00	0.000000000E+00

</event>
<event>
	4	1	3.267126300E-02	1.705844000E+03	7.818608000E-03	8.758038000E-02
	-2	-1	0	0	0	501	-0.000000000E+00	0.000000000E+00	1.086592336E+03	1.086592336E+03	5.040000000E-03	0.000000000E+00	1.000000000E+00
	1	-1	0	0	501	0	0.000000000E+00	-0.000000000E+00	-6.695025241E+02	6.695025241E+02	2.550000000E-03	0.000000000E+00	-1.000000000E+00
	-24	1	1	2	0	0	6.071528772E+02	4.658954395E+02	-1.742564057E+02	7.889425836E+02	7.982435975E+01	0.000000000E+00	-1.000000000E+00
	9000005	1	1	2	0	0	-6.071528772E+02	-4.658954395E+02	5.913462175E+02	9.671522765E+02	1.000000000E-05	0.000000000E+00	0.000000000E+00

</event>
<event>
	4	1	3.267126300E-02	1.855041000E+03	7.818608000E-03	8.677565000E-02
	-2	-1	0	0	0	501	-0.000000000E+00	0.000000000E+00	8.115346491E+02	8.115346491E+02	5.040000000E-03	0.000000000E+00	1.000000000E+00
	1	-1	0	0	501	0	0.000000000E+00	-0.000000000E+00	-1.060083450E+03	1.060083450E+03	2.550000000E-03	0.000000000E+00	-1.000000000E+00
	-24	1	1	2	0	0	-9.089557517E+02	-1.687436605E+02	-1.743060676E+02	9.441554507E+02	7.982435975E+01	0.000000000E+00	1.000000000E+00
	9000005	1	1	2	0	0	9.089557517E+02	1.687436605E+02	-7.424273357E+01	9.274626488E+02	1.000000000E-05	0.000000000E+00	0.000000000E+00

</event>
<event>
	4	1	3.267126300E-02	1.621682000E+03	7.818608000E-03	8.807338000E-02
	1	-1	0	0	501	0	0.000000000E+00	0.000000000E+00	1.176058397E+03	1.176058397E+03	5.040000000E-03	0.000000000E+00	-1.000000000E+00
	-2	-1	0	0	0	501	-0.000000000E+00	-0.000000000E+00	-5.590392653E+02	5.590392653E+02	2.550000000E-03	0.000000000E+00	1.000000000E+00
	-24	1	1	2	0	0	-5.941583678E+02	-4.769753727E+02	5.998214721E+02	9.729786221E+02	7.982435975E+01	0.000000000E+00	-1.000000000E+00
	9000005	1	1	2	0	0	5.941583678E+02	4.769753727E+02	1.719765968E+01	7.621190404E+02	1.000000000E-05	0.000000000E+00	0.000000000E+00

</event>
<event>
	6	1	3.267126300E-02	2.988345000E+03	7.818608000E-03	8.247067000E-02
	2	-1	0	0	501	0	0.000000000E+00	0.000000000E+00	1.543176030E+03	1.543176030E+03	2.550000000E-03	0.000000000E+00	-1.000000000E+00
	-1	-1	0	0	0	501	-0.000000000E+00	-0.000000000E+00	-1.446725050E+03	1.446725050E+03	5.040000000E-03	0.000000000E+00	1.000000000E+00
	24	2	1	2	0	0	3.598874494E+02	-7.499870138E+02	-1.192309469E+03	1.455983549E+03	7.928887857E+01	0.000000000E+00	0.000000000E+00
	-11	1	3	3	0	0	3.195900988E+02	-7.072082793E+02	-1.123709501E+03	1.365651648E+03	5.110000000E-04	0.000000000E+00	1.000000000E+00
	12	1	3	3	0	0	4.029735065E+01	-4.277873456E+01	-6.859996838E+01	9.033190058E+01	0.000000000E+00	0.000000000E+00	-1.000000000E+00
	9000005	1	1	2	0	0	-3.598874494E+02	7.499870138E+02	1.288760450E+03	1.533917531E+03	1.000000000E-05	0.000000000E+00	0.000000000E+00

</event>
<event>
	4	1	3.267126300E-02	1.428119000E+03	7.818608000E-03	8.933713000E-02
	1	-1	0	0	501	0	0.000000000E+00	0.000000000E+00	2.386615862E+03	2.386615862E+03	5.040000000E-03	0.000000000E+00	-1.000000000E+00
	-2	-1	0	0	0	501	-0.000000000E+00	-0.000000000E+00	-2.136417131E+02	2.136417131E+02	2.550000000E-03	0.000000000E+00	1.000000000E+00
	-24	1	1	2	0	0	-1.546619314E+02	5.992084867E+02	1.730334292E+03	1.839402026E+03	7.982435975E+01	0.000000000E+00	-1.000000000E+00
	9000005	1	1	2	0	0	1.546619314E+02	-5.992084867E+02	4.426398573E+02	7.608555493E+02	1.000000000E-05	0.000000000E+00	0.000000000E+00

</event>
<event>
	4	1	3.267126300E-02	1.474980000E+03	7.818608000E-03	8.901264000E-02
	1	-1	0	0	501	0	0.000000000E+00	0.000000000E+00	1.325985409E+03	1.325985409E+03	5.040000000E-03	0.000000000E+00	-1.000000000E+00
	-2	-1	0	0	0	501	-0.000000000E+00	-0.000000000E+00	-4.101789607E+02	4.101789607E+02	2.550000000E-03	0.000000000E+00	1.000000000E+00
	-24	1	1	2	0	0	-3.654457416E+02	-6.334109626E+02	3.684492271E+02	8.227313042E+02	7.982435975E+01	0.000000000E+00	1.000000000E+00
	9000005	1	1	2	0	0	3.654457416E+02	6.334109626E+02	5.473572217E+02	9.134330658E+02	1.000000000E-05	0.000000000E+00	0.000000000E+00

</event>
<event>
	4	1	3.267126300E-02	1.554863000E+03	7.818608000E-03	8.848767000E-02
	-2	-1	0	0	0	501	-0.000000000E+00	0.000000000E+00	1.730278362E+03	1.730278362E+03	5.040000000E-03	0.000000000E+00	1.000000000E+00
	1	-1	0	0	501	0	0.000000000E+00	-0.000000000E+00	-3.493079717E+02	3.493079718E+02	2.550000000E-03	0.000000000E+00	-1.000000000E+00
	-24	1	1	2	0	0	7.228242848E+02	-2.773456566E+02	7.494058797E+02	1.080452063E+03	7.982435975E+01	0.000000000E+00	1.000000000E+00
	9000005	1	1	2	0	0	-7.228242848E+02	2.773456566E+02	6.315645111E+02	9.991342711E+02	1.000000000E-05	0.000000000E+00	0.000000000E+00

</event>
<event>
	4	1	3.267126300E-02	1.681225000E+03	7.818608000E-03	8.772145000E-02
	-2	-1	0	0	0	501	-0.000000000E+00	0.000000000E+00	2.032851587E+02	2.032851587E+02	5.040000000E-03	0.000000000E+00	1.000000000E+00
	1	-1	0	0	501	0	0.000000000E+00	-0.000000000E+00	-3.476050921E+03	3.476050921E+03	2.550000000E-03	0.000000000E+00	-1.000000000E+00
	-24	1	1	2	0	0	-6.996292427E+02	-2.347837191E+02	-7.678494796E+02	1.067974355E+03	7.982435975E+01	0.000000000E+00	1.000000000E+00
	9000005	1	1	2	0	0	6.996292427E+02	2.347837191E+02	-2.504916283E+03	2.611361725E+03	1.000000000E-05	0.000000000E+00	0.000000000E+00

</event>
<event>
	4	1	3.267126300E-02	2.135248000E+03	7.818608000E-03	8.545873000E-02
	-2	-1	0	0	0	501	-0.000000000E+00	0.000000000E+00	7.718558984E+02	7.718558984E+02	5.040000000E-03	0.000000000E+00	1.000000000E+00
	1	-1	0	0	501	0	0.000000000E+00	-0.000000000E+00	-1.476727792E+03	1.476727792E+03	2.550000000E-03	0.000000000E+00	-1.000000000E+00
	-24	1	1	2	0	0	-9.995821464E+02	2.504729215E+02	-6.408182054E+02	1.216108981E+03	7.982435975E+01	0.000000000E+00	-1.000000000E+00
	9000005	1	1	2	0	0	9.995821464E+02	-2.504729215E+02	-6.405368843E+01	1.032474710E+03	1.000000000E-05	0.000000000E+00	0.000000000E+00

</event>
<event>
	4	1	3.267126300E-02	2.510895000E+03	7.818608000E-03	8.399114000E-02
	-2	-1	0	0	0	501	-0.000000000E+00	0.000000000E+00	1.283367594E+03	1.283367594E+03	5.040000000E-03	0.000000000E+00	1.000000000E+00
	1	-1	0	0	501	0	0.000000000E+00	-0.000000000E+00	-1.228135139E+03	1.228135139E+03	2.550000000E-03	0.000000000E+00	-1.000000000E+00
	-24	1	1	2	0	0	7.354776548E+02	5.094018130E+02	-8.515149540E+02	1.237686242E+03	7.982435975E+01	0.000000000E+00	-1.000000000E+00
	9000005	1	1	2	0	0	-7.354776548E+02	-5.094018130E+02	9.067474091E+02	1.273816491E+03	1.000000000E-05	0.000000000E+00	0.000000000E+00

</event>
<event>
	4	1	3.267126300E-02	1.500003000E+03	7.818608000E-03	8.884451000E-02
	-2	-1	0	0	0	501	-0.000000000E+00	0.000000000E+00	3.280826548E+02	3.280826548E+02	5.040000000E-03	0.000000000E+00	1.000000000E+00
	1	-1	0	0	501	0	0.000000000E+00	-0.000000000E+00	-1.714514825E+03	1.714514825E+03	2.550000000E-03	0.000000000E+00	-1.000000000E+00
	-24	1	1	2	0	0	-8.109282627E+01	5.956463883E+02	-1.301034375E+03	1.435420858E+03	7.982435975E+01	0.000000000E+00	-1.000000000E+00
	9000005	1	1	2	0	0	8.109282627E+01	-5.956463883E+02	-8.539779514E+01	6.071766216E+02	1.000000000E-05	0.000000000E+00	0.000000000E+00

</event>
<event>
	6	1	3.267126300E-02	2.914277000E+03	7.818608000E-03	8.268642000E-02
	2	-1	0	0	501	0	0.000000000E+00	0.000000000E+00	2.463235997E+03	2.463235997E+03	2.550000000E-03	0.000000000E+00	-1.000000000E+00
	-1	-1	0	0	0	501	-0.000000000E+00	-0.000000000E+00	-8.619766937E+02	8.619766937E+02	5.040000000E-03	0.000000000E+00	1.000000000E+00
	24	2	1	2	0	0	-1.290912882E+03	-5.928859362E+01	3.568900617E+01	1.295192602E+03	7.923992482E+01	0.000000000E+00	0.000000000E+00
	-11	1	3	3	0	0	-1.210826880E+03	-6.981902517E+01	2.055865284E+01	1.213012402E+03	5.110000000E-04	0.000000000E+00	1.000000000E+00
	12	1	3	3	0	0	-8.008600207E+01	1.053043155E+01	1.513035333E+01	8.218020022E+01	0.000000000E+00	0.000000000E+00	-1.000000000E+00
	9000005	1	1	2	0	0	1.290912882E+03	5.928859362E+01	1.565570297E+03	2.030020088E+03	1.000000000E-05	0.000000000E+00	0.000000000E+00

</event>
<event>
	4	1	3.267126300E-02	1.392026000E+03	7.818608000E-03	8.959611000E-02
	-2	-1	0	0	0	501	-0.000000000E+00	0.000000000E+00	3.936370643E+02	3.936370643E+02	5.040000000E-03	0.000000000E+00	1.000000000E+00
	1	-1	0	0	501	0	0.000000000E+00	-0.000000000E+00	-1.230661184E+03	1.230661184E+03	2.550000000E-03	0.000000000E+00	-1.000000000E+00
	-24	1	1	2	0	0	5.661291832E+02	2.743911778E+02	-7.610033292E+02	9.906012144E+02	7.982435975E+01	0.000000000E+00	-1.000000000E+00
	9000005	1	1	2	0	0	-5.661291832E+02	-2.743911778E+02	-7.602079072E+01	6.336970342E+02	1.000000000E-05	0.000000000E+00	0.000000000E+00

</event>
<event>
	4	1	3.267126300E-02	1.630221000E+03	7.818608000E-03	8.802194000E-02
	1	-1	0	0	501	0	0.000000000E+00	0.000000000E+00	7.480742107E+02	7.480742107E+02	5.040000000E-03	0.000000000E+00	-1.000000000E+00
	-2	-1	0	0	0	501	-0.000000000E+00	-0.000000000E+00	-8.881541146E+02	8.881541147E+02	2.550000000E-03	0.000000000E+00	1.000000000E+00
	-24	1	1	2	0	0	-4.774445296E+02	6.048681900E+02	-3.307878342E+02	8.423843100E+02	7.982435975E+01	0.000000000E+00	1.000000000E+00
	9000005	1	1	2	0	0	4.774445296E+02	-6.048681900E+02	1.907079303E+02	7.938440154E+02	1.000000000E-05	0.000000000E+00	0.000000000E+00

</event>
<event>
	4	1	3.267126300E-02	2.280325000E+03	7.818608000E-03	8.485719000E-02
	-2	-1	0	0	0	501	-0.000000000E+00	0.000000000E+00	6.211908984E+02	6.211908984E+02	5.040000000E-03	0.000000000E+00	1.000000000E+00
	1	-1	0	0	501	0	0.000000000E+00	-0.000000000E+00	-2.092706640E+03	2.092706640E+03	2.550000000E-03	0.000000000E+00	-1.000000000E+00
	-24	1	1	2	0	0	9.183679587E+02	-3.764897596E+02	-1.401052036E+03	1.718855137E+03	7.982435975E+01	0.000000000E+00	-1.000000000E+00
	9000005	1	1	2	0	0	-9.183679587E+02	3.764897596E+02	-7.046370577E+01	9.950424014E+02	1.000000000E-05	0.000000000E+00	0.000000000E+00

</event>
<event>
	4	1	3.267126300E-02	2.358725000E+03	7.818608000E-03	8.455120000E-02
	-2	-1	0	0	0	501	-0.000000000E+00	0.000000000E+00	7.061089772E+02	7.061089772E+02	5.040000000E-03	0.000000000E+00	1.000000000E+00
	1	-1	0	0	501	0	0.000000000E+00	-0.000000000E+00	-1.969803731E+03	1.969803731E+03	2.550000000E-03	0.000000000E+00	-1.000000000E+00
	-24	1	1	2	0	0	3.419205341E+02	-1.038496061E+03	-1.350446280E+02	1.104532797E+03	7.982435975E+01	0.000000000E+00	1.000000000E+00
	9000005	1	1	2	0	0	-3.419205341E+02	1.038496061E+03	-1.128650126E+03	1.571379912E+03	1.000000000E-05	0.000000000E+00	0.000000000E+00

</event>
<event>
	4	1	3.267126300E-02	2.484221000E+03	7.818608000E-03	8.408629000E-02
	1	-1	0	0	501	0	0.000000000E+00	0.000000000E+00	1.630993020E+03	1.630993020E+03	5.040000000E-03	0.000000000E+00	-1.000000000E+00
	-2	-1	0	0	0	501	-0.000000000E+00	-0.000000000E+00	-9.459504027E+02	9.459504027E+02	2.550000000E-03	0.000000000E+00	1.000000000E+00
	-24	1	1	2	0	0	2.077120984E+02	-9.597321895E+02	1.129755197E+03	1.498982630E+03	7.982435975E+01	0.000000000E+00	-1.000000000E+00
	9000005	1	1	2	0	0	-2.077120984E+02	9.597321895E+02	-4.447125800E+02	1.077960793E+03	1.000000000E-05	0.000000000E+00	0.000000000E+00

</event>
<event>
	4	1	3.267126300E-02	3.621636000E+03	7.818608000E-03	8.085554000E-02
	-2	-1	0	0	0	501	-0.000000000E+00	0.000000000E+00	1.125161006E+03	1.125161006E+03	5.040000000E-03	0.000000000E+00	1.000000000E+00
	1	-1	0	0	501	0	0.000000000E+00	-0.000000000E+00	-2.914304150E+03	2.914304150E+03	2.550000000E-03	0.000000000E+00	-1.000000000E+00
	-24	1	1	2	0	0	1.204210755E+03	9.617005598E+02	1.636470050E+02	1.551819506E+03	7.982435975E+01	0.000000000E+00	1.000000000E+00
	9000005	1	1	2	0	0	-1.204210755E+03	-9.617005598E+02	-1.952790150E+03	2.487645650E+03	1.000000000E-05	0.000000000E+00	0.000000000E+00

</event>
<event>
	4	1	3.267126300E-02	1.324890000E+03	7.818608000E-03	9.010057000E-02
	1	-1	0	0	501	0	0.000000000E+00	0.000000000E+00	2.955139962E+02	2.955139962E+02	5.040000000E-03	0.000000000E+00	-1.000000000E+00
	-2	-1	0	0	0	501	-0.000000000E+00	-0.000000000E+00	-1.484983478E+03	1.484983478E+03	2.550000000E-03	0.000000000E+00	1.000000000E+00
	-24	1	1	2	0	0	5.089151203E+02	3.855897429E+02	-3.721026358E+02	7.433077084E+02	7.982435975E+01	0.000000000E+00	-1.000000000E+00
	9000005	1	1	2	0	0	-5.089151203E+02	-3.855897429E+02	-8.173668464E+02	1.037189766E+03	1.000000000E-05	0.000000000E+00	0.000000000E+00

</event>
<event>
	4	1	3.267126300E-02	1.814275000E+03	7.818608000E-03	8.698745000E-02
	1	-1	0	0	501	0	0.000000000E+00	0.000000000E+00	1.539556505E+03	1.539556505E+03	5.040000000E-03	0.000000000E+00	-1.000000000E+00
	-2	-1	0	0	0	501	-0.000000000E+00	-0.000000000E+00	-5.345038538E+02	5.345038538E+02	2.550000000E-03	0.000000000E+00	1.000000000E+00
	-24	1	1	2	0	0	-8.684773809E+02	-6.308752540E+01	2.200365617E+02	9.016767790E+02	7.982435975E+01	0.000000000E+00	-1.000000000E+00
	9000005	1	1	2	0	0	8.684773809E+02	6.308752540E+01	7.850160891E+02	1.172383579E+03	1.000000000E-05	0.000000000E+00	0.000000000E+00

</event>
<event>
	4	1	3.267126300E-02	1.351033000E+03	7.818608000E-03	8.990047000E-02
	1	-1	0	0	501	0	0.000000000E+00	0.000000000E+00	1.396642911E+03	1.396642911E+03	5.040000000E-03	0.000000000E+00	-1.000000000E+00
	-2	-1	0	0	0	501	-0.000000000E+00	-0.000000000E+00	-3.267280022E+02	3.267280023E+02	2.550000000E-03	0.000000000E+00	1.000000000E+00
	-24	1	1	2	0	0	5.633717856E+01	6.292906911E+02	8.331402401E+02	1.048654013E+03	7.982435975E+01	0.000000000E+00	-1.000000000E+00
	9000005	1	1	2	0	0	-5.633717856E+01	-6.292906911E+02	2.367746689E+02	6.747169002E+02	1.000000000E-05	0.000000000E+00	0.000000000E+00

</event>
<event>
	4	1	3.267126300E-02	1.598546000E+03	7.818608000E-03	8.821442000E-02
	1	-1	0	0	501	0	0.000000000E+00	0.000000000E+00	1.494603889E+03	1.494603889E+03	5.040000000E-03	0.000000000E+00	-1.000000000E+00
	-2	-1	0	0	0	501	-0.000000000E+00	-0.000000000E+00	-4.274293681E+02	4.274293681E+02	2.550000000E-03	0.000000000E+00	1.000000000E+00
	-24	1	1	2	0	0	6.884523665E+02	1.268945766E+02	9.936894033E+02	1.218137699E+03	7.982435975E+01	0.000000000E+00	-1.000000000E+00
	9000005	1	1	2	0	0	-6.884523665E+02	-1.268945766E+02	7.348511749E+01	7.038955583E+02	1.000000000E-05	0.000000000E+00	0.000000000E+00

</event>
<event>
	4	1	3.267126300E-02	1.378756000E+03	7.818608000E-03	8.969341000E-02
	-4	-1	0	0	0	501	-0.000000000E+00	0.000000000E+00	7.505592472E+02	7.505603217E+02	1.010000000E-01	0.000000000E+00	1.000000000E+00
	3	-1	0	0	501	0	0.000000000E+00	-0.000000000E+00	-6.331828792E+02	6.331828873E+02	1.270000000E+00	0.000000000E+00	-1.000000000E+00
	-24	1	1	2	0	0	5.053350540E+02	4.588853993E+02	-1.964173251E+01	6.875296739E+02	7.982435975E+01	0.000000000E+00	-1.000000000E+00
	9000005	1	1	2	0	0	-5.053350540E+02	-4.588853993E+02	1.370181005E+02	6.962135350E+02	1.000000000E-05	0.000000000E+00	0.000000000E+00

</event>
<event>
	4	1	3.267126300E-02	2.384465000E+03	7.818608000E-03	8.445342000E-02
	1	-1	0	0	501	0	0.000000000E+00	0.000000000E+00	1.543887447E+03	1.543887447E+03	5.040000000E-03	0.000000000E+00	-1.000000000E+00
	-2	-1	0	0	0	501	-0.000000000E+00	-0.000000000E+00	-9.206750678E+02	9.206750678E+02	2.550000000E-03	0.000000000E+00	1.000000000E+00
	-24	1	1	2	0	0	-1.414780460E+01	-7.561712393E+02	-6.388583446E+02	9.932305958E+02	7.982435975E+01	0.000000000E+00	1.000000000E+00
	9000005	1	1	2	0	0	1.414780460E+01	7.561712393E+02	1.262070724E+03	1.471331919E+03	1.000000000E-05	0.000000000E+00	0.000000000E+00

</event>
<event>
	4	1	3.267126300E-02	2.281752000E+03	7.818608000E-03	8.485151000E-02
	-2	-1	0	0	0	501	-0.000000000E+00	0.000000000E+00	7.601747178E+02	7.601747178E+02	5.040000000E-03	0.000000000E+00	1.000000000E+00
	1	-1	0	0	501	0	0.000000000E+00	-0.000000000E+00	-1.712235236E+03	1.712235236E+03	2.550000000E-03	0.000000000E+00	-1.000000000E+00
	-24	1	1	2	0	0	1.758675387E+02	1.117447054E+03	-3.280562859E+02	1.180512670E+03	7.982435975E+01	0.000000000E+00	1.000000000E+00
	9000005	1	1	2	0	0	-1.758675387E+02	-1.117447054E+03	-6.240042319E+02	1.291897283E+03	1.000000000E-05	0.000000000E+00	0.000000000E+00

</event>
<event>
	4	1	3.267126300E-02	1.628632000E+03	7.818608000E-03	8.803149000E-02
	1	-1	0	0	501	0	0.000000000E+00	0.000000000E+00	2.004366049E+03	2.004366049E+03	5.040000000E-03	0.000000000E+00	-1.000000000E+00
	-2	-1	0	0	0	501	-0.000000000E+00	-0.000000000E+00	-3.308329295E+02	3.308329296E+02	2.550000000E-03	0.000000000E+00	1.000000000E+00
	-24	1	1	2	0	0	6.161669376E+02	4.974166609E+02	1.098627030E+03	1.356627550E+03	7.982435975E+01	0.000000000E+00	1.000000000E+00
	9000005	1	1	2	0	0	-6.161669376E+02	-4.974166609E+02	5.749060894E+02	9.785714287E+02	1.000000000E-05	0.000000000E+00	0.000000000E+00

</event>
<event>
	4	1	3.267126300E-02	2.416694000E+03	7.818608000E-03	8.433280000E-02
	1	-1	0	0	501	0	0.000000000E+00	0.000000000E+00	2.020056676E+03	2.020056676E+03	5.040000000E-03	0.000000000E+00	-1.000000000E+00
	-2	-1	0	0	0	501	-0.000000000E+00	-0.000000000E+00	-7.228029442E+02	7.228029442E+02	2.550000000E-03	0.000000000E+00	1.000000000E+00
	-24	1	1	2	0	0	1.078892065E+03	-5.403688641E+02	6.836113702E+02	1.389137513E+03	7.982435975E+01	0.000000000E+00	-1.000000000E+00
	9000005	1	1	2	0	0	-1.078892065E+03	5.403688641E+02	6.136423620E+02	1.353722108E+03	1.000000000E-05	0.000000000E+00	0.000000000E+00

</event>
<event>
	4	1	3.267126300E-02	1.634234000E+03	7.818608000E-03	8.799789000E-02
	1	-1	0	0	501	0	0.000000000E+00	0.000000000E+00	6.402289723E+02	6.402289724E+02	5.040000000E-03	0.000000000E+00	-1.000000000E+00
	-4	-1	0	0	0	501	-0.000000000E+00	-0.000000000E+00	-1.042875933E+03	1.042876706E+03	1.270000000E+00	0.000000000E+00	1.000000000E+00
	-24	1	1	2	0	0	-4.411169029E+02	-5.878291627E+02	-5.650123934E+02	9.304505251E+02	7.982435975E+01	0.000000000E+00	1.000000000E+00
	9000005	1	1	2	0	0	4.411169029E+02	5.878291627E+02	1.623654327E+02	7.526551536E+02	1.000000000E-05	0.000000000E+00	0.000000000E+00

</event>
<event>
	4	1	3.267126300E-02	1.792163000E+03	7.818608000E-03	8.710478000E-02
	1	-1	0	0	501	0	0.000000000E+00	0.000000000E+00	1.547678574E+03	1.547678574E+03	5.040000000E-03	0.000000000E+00	-1.000000000E+00
	-2	-1	0	0	0	501	-0.000000000E+00	-0.000000000E+00	-5.188170615E+02	5.188170615E+02	2.550000000E-03	0.000000000E+00	1.000000000E+00
	-24	1	1	2	0	0	-8.265073710E+02	3.402317491E+02	4.807216312E+02	1.018006529E+03	7.982435975E+01	0.000000000E+00	-1.000000000E+00
	9000005	1	1	2	0	0	8.265073710E+02	-3.402317491E+02	5.481398811E+02	1.048489107E+03	1.000000000E-05	0.000000000E+00	0.000000000E+00

</event>
<event>
	4	1	3.267126300E-02	2.418424000E+03	7.818608000E-03	8.432638000E-02
	1	-1	0	0	501	0	0.000000000E+00	0.000000000E+00	1.284173421E+03	1.284173421E+03	5.040000000E-03	0.000000000E+00	-1.000000000E+00
	-2	-1	0	0	0	501	-0.000000000E+00	-0.000000000E+00	-1.138626125E+03	1.138626125E+03	2.550000000E-03	0.000000000E+00	1.000000000E+00
	-24	1	1	2	0	0	3.746016929E+02	1.128940815E+03	-1.377067667E+02	1.200070362E+03	7.982435975E+01	0.000000000E+00	1.000000000E+00
	9000005	1	1	2	0	0	-3.746016929E+02	-1.128940815E+03	2.832540622E+02	1.222729183E+03	1.000000000E-05	0.000000000E+00	0.000000000E+00

</event>
<event>
	4	1	3.267126300E-02	1.544274000E+03	7.818608000E-03	8.855533000E-02
	-2	-1	0	0	0	501	-0.000000000E+00	0.000000000E+00	5.768934165E+02	5.768934165E+02	5.040000000E-03	0.000000000E+00	1.000000000E+00
	1	-1	0	0	501	0	0.000000000E+00	-0.000000000E+00	-1.033459013E+03	1.033459014E+03	2.550000000E-03	0.000000000E+00	-1.000000000E+00
	-24	1	1	2	0	0	6.506306397E+01	7.572693091E+02	-9.980579117E+01	7.707289622E+02	7.982435975E+01	0.000000000E+00	-1.000000000E+00
	9000005	1	1	2	0	0	-6.506306397E+01	-7.572693091E+02	-3.567598057E+02	8.396234678E+02	1.000000000E-05	0.000000000E+00	0.000000000E+00

</event>
<event>
	4	1	3.267126300E-02	1.436431000E+03	7.818608000E-03	8.927862000E-02
	1	-1	0	0	501	0	0.000000000E+00	0.000000000E+00	1.417398760E+03	1.417398760E+03	5.040000000E-03	0.000000000E+00	-1.000000000E+00
	-2	-1	0	0	0	501	-0.000000000E+00	-0.000000000E+00	-3.639294562E+02	3.639294562E+02	2.550000000E-03	0.000000000E+00	1.000000000E+00
	-24	1	1	2	0	0	-2.072447532E+02	6.082459356E+02	1.367177510E+02	6.617984419E+02	7.982435975E+01	0.000000000E+00	1.000000000E+00
	9000005	1	1	2	0	0	2.072447532E+02	-6.082459356E+02	9.167515523E+02	1.119529774E+03	1.000000000E-05	0.000000000E+00	0.000000000E+00

</event>
<event>
	4	1	3.267126300E-02	1.599454000E+03	7.818608000E-03	8.820884000E-02
	1	-1	0	0	501	0	0.000000000E+00	0.000000000E+00	8.289573247E+02	8.289573248E+02	5.040000000E-03	0.000000000E+00	-1.000000000E+00
	-2	-1	0	0	0	501	-0.000000000E+00	-0.000000000E+00	-7.715269444E+02	7.715269445E+02	2.550000000E-03	0.000000000E+00	1.000000000E+00
	-24	1	1	2	0	0	5.368970994E+02	-5.810717755E+02	1.312148363E+02	8.059107676E+02	7.982435975E+01	0.000000000E+00	-1.000000000E+00
	9000005	1	1	2	0	0	-5.368970994E+02	5.810717755E+02	-7.378445597E+01	7.945735017E+02	1.000000000E-05	0.000000000E+00	0.000000000E+00

</event>
<event>
	4	1	3.267126300E-02	2.496642000E+03	7.818608000E-03	8.404183000E-02
	1	-1	0	0	501	0	0.000000000E+00	0.000000000E+00	8.205221856E+02	8.205221856E+02	5.040000000E-03	0.000000000E+00	-1.000000000E+00
	-2	-1	0	0	0	501	-0.000000000E+00	-0.000000000E+00	-1.899162323E+03	1.899162323E+03	2.550000000E-03	0.000000000E+00	1.000000000E+00
	-24	1	1	2	0	0	-1.176441109E+03	3.863601391E+02	-3.789123018E+02	1.297395198E+03	7.982435975E+01	0.000000000E+00	-1.000000000E+00
	9000005	1	1	2	0	0	1.176441109E+03	-3.863601391E+02	-6.997278359E+02	1.422289311E+03	1.000000000E-05	0.000000000E+00	0.000000000E+00

</event>
<event>
	4	1	3.267126300E-02	1.772850000E+03	7.818608000E-03	8.720872000E-02
	-2	-1	0	0	0	501	-0.000000000E+00	0.000000000E+00	9.325465363E+02	9.325465363E+02	5.040000000E-03	0.000000000E+00	1.000000000E+00
	1	-1	0	0	501	0	0.000000000E+00	-0.000000000E+00	-8.425848906E+02	8.425848906E+02	2.550000000E-03	0.000000000E+00	-1.000000000E+00
	-24	1	1	2	0	0	3.229289842E+01	-6.558680771E+02	6.385919059E+02	9.194440258E+02	7.982435975E+01	0.000000000E+00	1.000000000E+00
	9000005	1	1	2	0	0	-3.229289842E+01	6.558680771E+02	-5.486302602E+02	8.556874010E+02	1.000000000E-05	0.000000000E+00	0.000000000E+00

</event>
<event>
	4	1	3.267126300E-02	1.897532000E+03	7.818608000E-03	8.656086000E-02
	1	-1	0	0	501	0	0.000000000E+00	0.000000000E+00	2.511496848E+03	2.511496848E+03	5.040000000E-03	0.000000000E+00	-1.000000000E+00
	-2	-1	0	0	0	501	-0.000000000E+00	-0.000000000E+00	-3.584146662E+02	3.584146662E+02	2.550000000E-03	0.000000000E+00	1.000000000E+00
	-24	1	1	2	0	0	6.072370798E+02	-5.307481721E+02	1.829422513E+03	2.000897087E+03	7.982435975E+01	0.000000000E+00	-1.000000000E+00
	9000005	1	1	2	0	0	-6.072370798E+02	5.307481721E+02	3.236596687E+02	8.690144271E+02	1.000000000E-05	0.000000000E+00	0.000000000E+00

</event>
<event>
	4	1	3.267126300E-02	1.468887000E+03	7.818608000E-03	8.905410000E-02
	1	-1	0	0	501	0	0.000000000E+00	0.000000000E+00	9.942208316E+02	9.942208316E+02	5.040000000E-03	0.000000000E+00	-1.000000000E+00
	-2	-1	0	0	0	501	-0.000000000E+00	-0.000000000E+00	-5.425426411E+02	5.425426411E+02	2.550000000E-03	0.000000000E+00	1.000000000E+00
	-24	1	1	2	0	0	3.702657831E+02	-4.988300690E+02	6.321032026E+02	8.898621101E+02	7.982435975E+01	0.000000000E+00	-1.000000000E+00
	9000005	1	1	2	0	0	-3.702657831E+02	4.988300690E+02	-1.804250121E+02	6.469013626E+02	1.000000000E-05	0.000000000E+00	0.000000000E+00

</event>
<event>
	4	1	3.267126300E-02	1.844813000E+03	7.818608000E-03	8.682825000E-02
	-2	-1	0	0	0	501	-0.000000000E+00	0.000000000E+00	1.528183124E+03	1.528183124E+03	5.040000000E-03	0.000000000E+00	1.000000000E+00
	1	-1	0	0	501	0	0.000000000E+00	-0.000000000E+00	-5.567617910E+02	5.567617911E+02	2.550000000E-03	0.000000000E+00	-1.000000000E+00
	-24	1	1	2	0	0	-4.228642398E+02	5.557034811E+02	-1.915081577E+02	7.284695100E+02	7.982435975E+01	0.000000000E+00	-1.000000000E+00
	9000005	1	1	2	0	0	4.228642398E+02	-5.557034811E+02	1.162929490E+03	1.356475405E+03	1.000000000E-05	0.000000000E+00	0.000000000E+00

</event>
<event>
	4	1	3.267126300E-02	2.171380000E+03	7.818608000E-03	8.530436000E-02
	-2	-1	0	0	0	501	-0.000000000E+00	0.000000000E+00	4.853392296E+03	4.853392296E+03	5.040000000E-03	0.000000000E+00	1.000000000E+00
	1	-1	0	0	501	0	0.000000000E+00	-0.000000000E+00	-2.428658010E+02	2.428658010E+02	2.550000000E-03	0.000000000E+00	-1.000000000E+00
	-24	1	1	2	0	0	-9.001628621E+02	-2.090283401E+02	3.639267999E+03	3.755613069E+03	7.982435975E+01	0.000000000E+00	1.000000000E+00
	9000005	1	1	2	0	0	9.001628621E+02	2.090283401E+02	9.712584953E+02	1.340645028E+03	1.000000000E-05	0.000000000E+00	0.000000000E+00

</event>
<event>
	4	1	3.267126300E-02	1.651870000E+03	7.818608000E-03	8.789301000E-02
	-2	-1	0	0	0	501	-0.000000000E+00	0.000000000E+00	3.234421056E+02	3.234421056E+02	5.040000000E-03	0.000000000E+00	1.000000000E+00
	1	-1	0	0	501	0	0.000000000E+00	-0.000000000E+00	-2.109091164E+03	2.109091164E+03	2.550000000E-03	0.000000000E+00	-1.000000000E+00
	-24	1	1	2	0	0	-8.372458273E+00	-6.339816699E+02	-1.669924260E+03	1.788021761E+03	7.982435975E+01	0.000000000E+00	-1.000000000E+00
	9000005	1	1	2	0	0	8.372458273E+00	6.339816699E+02	-1.157247986E+02	6.445115087E+02	1.000000000E-05	0.000000000E+00	0.000000000E+00

</event>
<event>
	4	1	3.267126300E-02	1.257804000E+03	7.818608000E-03	9.063713000E-02
	-2	-1	0	0	0	501	-0.000000000E+00	0.000000000E+00	1.674674236E+02	1.674674236E+02	5.040000000E-03	0.000000000E+00	1.000000000E+00
	1	-1	0	0	501	0	0.000000000E+00	-0.000000000E+00	-2.361760230E+03	2.361760230E+03	2.550000000E-03	0.000000000E+00	-1.000000000E+00
	-24	1	1	2	0	0	4.099718369E+02	-4.735304048E+02	-1.090478093E+03	1.260088231E+03	7.982435975E+01	0.000000000E+00	-1.000000000E+00
	9000005	1	1	2	0	0	-4.099718369E+02	4.735304048E+02	-1.103814714E+03	1.269139423E+03	1.000000000E-05	0.000000000E+00	0.000000000E+00

</event>
<event>
	6	1	3.267126300E-02	2.164213000E+03	7.818608000E-03	8.533473000E-02
	-1	-1	0	0	0	501	-0.000000000E+00	0.000000000E+00	6.471013420E+02	6.471013420E+02	2.550000000E-03	0.000000000E+00	1.000000000E+00
	2	-1	0	0	501	0	0.000000000E+00	-0.000000000E+00	-1.809538325E+03	1.809538325E+03	5.040000000E-03	0.000000000E+00	-1.000000000E+00
	24	2	1	2	0	0	-8.653687839E+02	-4.751633703E+02	-1.080294342E+03	1.465987976E+03	8.626424275E+01	0.000000000E+00	0.000000000E+00
	-11	1	3	3	0	0	-6.807620685E+02	-3.380013616E+02	-8.014826005E+02	1.104561575E+03	5.110000000E-04	0.000000000E+00	1.000000000E+00
	12	1	3	3	0	0	-1.846067155E+02	-1.371620087E+02	-2.788117413E+02	3.614264007E+02	0.000000000E+00	0.000000000E+00	-1.000000000E+00
	9000005	1	1	2	0	0	8.653687839E+02	4.751633703E+02	-8.214264166E+01	9.906516916E+02	1.000000000E-05	0.000000000E+00	0.000000000E+00

</event>
<event>
	4	1	3.267126300E-02	1.557378000E+03	7.818608000E-03	8.847169000E-02
	-2	-1	0	0	0	501	-0.000000000E+00	0.000000000E+00	3.177333110E+02	3.177333110E+02	5.040000000E-03	0.000000000E+00	1.000000000E+00
	1	-1	0	0	501	0	0.000000000E+00	-0.000000000E+00	-1.908382987E+03	1.908382987E+03	2.550000000E-03	0.000000000E+00	-1.000000000E+00
	-24	1	1	2	0	0	6.590856387E+02	2.740705694E+02	-1.234881851E+03	1.428570499E+03	7.982435975E+01	0.000000000E+00	1.000000000E+00
	9000005	1	1	2	0	0	-6.590856387E+02	-2.740705694E+02	-3.557678247E+02	7.975457988E+02	1.000000000E-05	0.000000000E+00	0.000000000E+00

</event>
<event>
	4	1	3.267126300E-02	2.209136000E+03	7.818608000E-03	8.514635000E-02
	1	-1	0	0	501	0	0.000000000E+00	0.000000000E+00	2.837246117E+03	2.837246117E+03	5.040000000E-03	0.000000000E+00	-1.000000000E+00
	-2	-1	0	0	0	501	-0.000000000E+00	-0.000000000E+00	-4.300192557E+02	4.300192557E+02	2.550000000E-03	0.000000000E+00	1.000000000E+00
	-24	1	1	2	0	0	8.080171835E+02	-7.506454731E+02	1.239110783E+03	1.660761228E+03	7.982435975E+01	0.000000000E+00	-1.000000000E+00
	9000005	1	1	2	0	0	-8.080171835E+02	7.506454731E+02	1.168116078E+03	1.606504145E+03	1.000000000E-05	0.000000000E+00	0.000000000E+00

</event>
<event>
	6	1	3.267126300E-02	1.904734000E+03	7.818608000E-03	8.652504000E-02
	-1	-1	0	0	0	501	-0.000000000E+00	0.000000000E+00	3.011638318E+02	3.011638319E+02	2.550000000E-03	0.000000000E+00	1.000000000E+00
	2	-1	0	0	501	0	0.000000000E+00	-0.000000000E+00	-3.011658226E+03	3.011658226E+03	5.040000000E-03	0.000000000E+00	-1.000000000E+00
	24	2	1	2	0	0	-6.199647556E+02	-7.038357008E+02	-1.087182543E+03	1.438020107E+03	7.870802042E+01	0.000000000E+00	0.000000000E+00
	-11	1	3	3	0	0	-4.969208841E+02	-5.286512071E+02	-8.739427108E+02	1.135860170E+03	5.110000000E-04	0.000000000E+00	1.000000000E+00
	12	1	3	3	0	0	-1.230438715E+02	-1.751844937E+02	-2.132398324E+02	3.021599366E+02	0.000000000E+00	0.000000000E+00	-1.000000000E+00
	9000005	1	1	2	0	0	6.199647556E+02	7.038357008E+02	-1.623311851E+03	1.874801952E+03	1.000000000E-05	0.000000000E+00	0.000000000E+00

</event>
<event>
	4	1	3.267126300E-02	1.795788000E+03	7.818608000E-03	8.708542000E-02
	-2	-1	0	0	0	501	-0.000000000E+00	0.000000000E+00	4.800416087E+02	4.800416087E+02	5.040000000E-03	0.000000000E+00	1.000000000E+00
	1	-1	0	0	501	0	0.000000000E+00	-0.000000000E+00	-1.679466599E+03	1.679466599E+03	2.550000000E-03	0.000000000E+00	-1.000000000E+00
	-24	1	1	2	0	0	-1.834179944E+02	-8.732388823E+02	-5.014223793E+02	1.026637539E+03	7.982435975E+01	0.000000000E+00	1.000000000E+00
	9000005	1	1	2	0	0	1.834179944E+02	8.732388823E+02	-6.980026106E+02	1.132870668E+03	1.000000000E-05	0.000000000E+00	0.000000000E+00

</event>
<event>
	4	1	3.267126300E-02	1.905051000E+03	7.818608000E-03	8.652346000E-02
	-2	-1	0	0	0	501	-0.000000000E+00	0.000000000E+00	1.109644816E+03	1.109644816E+03	5.040000000E-03	0.000000000E+00	1.000000000E+00
	1	-1	0	0	501	0	0.000000000E+00	-0.000000000E+00	-8.176535645E+02	8.176535645E+02	2.550000000E-03	0.000000000E+00	-1.000000000E+00
	-24	1	1	2	0	0	-3.348753693E+02	-8.248467857E+02	-1.917274465E+02	9.141362453E+02	7.982435975E+01	0.000000000E+00	-1.000000000E+00
	9000005	1	1	2	0	0	3.348753693E+02	8.248467857E+02	4.837186975E+02	1.013162135E+03	1.000000000E-05	0.000000000E+00	0.000000000E+00

</event>
<event>
	4	1	3.267126300E-02	3.458814000E+03	7.818608000E-03	8.123620000E-02
	-2	-1	0	0	0	501	-0.000000000E+00	0.000000000E+00	2.809853912E+03	2.809853912E+03	5.040000000E-03	0.000000000E+00	1.000000000E+00
	1	-1	0	0	501	0	0.000000000E+00	-0.000000000E+00	-1.064414358E+03	1.064414358E+03	2.550000000E-03	0.000000000E+00	-1.000000000E+00
	-24	1	1	2	0	0	-6.399760076E+02	-1.929627375E+02	-9.122864528E+02	1.133773526E+03	7.982435975E+01	0.000000000E+00	-1.000000000E+00
	9000005	1	1	2	0	0	6.399760076E+02	1.929627375E+02	2.657726007E+03	2.740494743E+03	1.000000000E-05	0.000000000E+00	0.000000000E+00

</event>
<event>
	4	1	3.267126300E-02	1.305853000E+03	7.818608000E-03	9.024936000E-02
	-2	-1	0	0	0	501	-0.000000000E+00	0.000000000E+00	9.477001660E+02	9.477001660E+02	5.040000000E-03	0.000000000E+00	1.000000000E+00
	1	-1	0	0	501	0	0.000000000E+00	-0.000000000E+00	-4.498397460E+02	4.498397460E+02	2.550000000E-03	0.000000000E+00	-1.000000000E+00
	-24	1	1	2	0	0	-5.808407787E+02	-2.514767555E+02	8.926928442E+01	6.441719509E+02	7.982435975E+01	0.000000000E+00	-1.000000000E+00
	9000005	1	1	2	0	0	5.808407787E+02	2.514767555E+02	4.085911356E+02	7.533679611E+02	1.000000000E-05	0.000000000E+00	0.000000000E+00

</event>
<event>
	4	1	3.267126300E-02	1.698978000E+03	7.818608000E-03	8.761947000E-02
	-2	-1	0	0	0	501	-0.000000000E+00	0.000000000E+00	3.405323661E+02	3.405323661E+02	5.040000000E-03	0.000000000E+00	1.000000000E+00
	1	-1	0	0	501	0	0.000000000E+00	-0.000000000E+00	-2.119128224E+03	2.119128224E+03	2.550000000E-03	0.000000000E+00	-1.000000000E+00
	-24	1	1	2	0	0	-3.467430118E+02	7.684689375E+02	-1.018084732E+03	1.324252119E+03	7.982435975E+01	0.000000000E+00	-1.000000000E+00
	9000005	1	1	2	0	0	3.467430118E+02	-7.684689375E+02	-7.605111258E+02	1.135408471E+03	1.000000000E-05	0.000000000E+00	0.000000000E+00

</event>
<event>
	4	1	3.267126300E-02	1.563454000E+03	7.818608000E-03	8.843319000E-02
	-2	-1	0	0	0	501	-0.000000000E+00	0.000000000E+00	1.214881981E+03	1.214881981E+03	5.040000000E-03	0.000000000E+00	1.000000000E+00
	1	-1	0	0	501	0	0.000000000E+00	-0.000000000E+00	-5.030097534E+02	5.030097534E+02	2.550000000E-03	0.000000000E+00	-1.000000000E+00
	-24	1	1	2	0	0	3.961496037E+02	4.596636956E+02	-1.810786176E+02	6.382684511E+02	7.982435975E+01	0.000000000E+00	-1.000000000E+00
	9000005	1	1	2	0	0	-3.961496037E+02	-4.596636956E+02	8.929508447E+02	1.079623283E+03	1.000000000E-05	0.000000000E+00	0.000000000E+00

</event>
<event>
	4	1	3.267126300E-02	2.343012000E+03	7.818608000E-03	8.461153000E-02
	-2	-1	0	0	0	501	-0.000000000E+00	0.000000000E+00	9.992683880E+02	9.992683880E+02	5.040000000E-03	0.000000000E+00	1.000000000E+00
	1	-1	0	0	501	0	0.000000000E+00	-0.000000000E+00	-1.373431186E+03	1.373431186E+03	2.550000000E-03	0.000000000E+00	-1.000000000E+00
	-24	1	1	2	0	0	-7.205620935E+02	9.034633409E+02	-3.734386350E+02	1.217080146E+03	7.982435975E+01	0.000000000E+00	1.000000000E+00
	9000005	1	1	2	0	0	7.205620935E+02	-9.034633409E+02	-7.241632950E-01	1.155619428E+03	1.000000000E-05	0.000000000E+00	0.000000000E+00

</event>
<event>
	4	1	3.267126300E-02	2.551154000E+03	7.818608000E-03	8.384985000E-02
	-2	-1	0	0	0	501	-0.000000000E+00	0.000000000E+00	1.652866997E+03	1.652866997E+03	5.040000000E-03	0.000000000E+00	1.000000000E+00
	1	-1	0	0	501	0	0.000000000E+00	-0.000000000E+00	-9.844090227E+02	9.844090227E+02	2.550000000E-03	0.000000000E+00	-1.000000000E+00
	-24	1	1	2	0	0	4.632325029E+02	4.205535974E+02	-8.130841331E+02	1.029041989E+03	7.982435975E+01	0.000000000E+00	-1.000000000E+00
	9000005	1	1	2	0	0	-4.632325029E+02	-4.205535974E+02	1.481542107E+03	1.608234030E+03	1.000000000E-05	0.000000000E+00	0.000000000E+00

</event>
<event>
	4	1	3.267126300E-02	1.359741000E+03	7.818608000E-03	8.983487000E-02
	1	-1	0	0	501	0	0.000000000E+00	0.000000000E+00	3.297538077E+03	3.297538077E+03	5.040000000E-03	0.000000000E+00	-1.000000000E+00
	-2	-1	0	0	0	501	-0.000000000E+00	-0.000000000E+00	-1.401723856E+02	1.401723856E+02	2.550000000E-03	0.000000000E+00	1.000000000E+00
	-24	1	1	2	0	0	6.128048085E+02	9.927805793E+01	2.270277316E+03	2.354977046E+03	7.982435975E+01	0.000000000E+00	1.000000000E+00
	9000005	1	1	2	0	0	-6.128048085E+02	-9.927805793E+01	8.870883752E+02	1.082733417E+03	1.000000000E-05	0.000000000E+00	0.000000000E+00

</event>
<event>
	4	1	3.267126300E-02	1.474347000E+03	7.818608000E-03	8.901693000E-02
	-4	-1	0	0	0	501	-0.000000000E+00	0.000000000E+00	2.608040189E+02	2.608071110E+02	5.040000000E-03	0.000000000E+00	1.000000000E+00
	1	-1	0	0	501	0	0.000000000E+00	-0.000000000E+00	-2.083639145E+03	2.083639145E+03	1.270000000E+00	0.000000000E+00	-1.000000000E+00
	-24	1	1	2	0	0	-4.166916176E+02	-6.040578414E+02	-8.480256319E+02	1.124294081E+03	7.982435975E+01	0.000000000E+00	-1.000000000E+00
	9000005	1	1	2	0	0	4.166916176E+02	6.040578414E+02	-9.748094940E+02	1.220152175E+03	1.000000000E-05	0.000000000E+00	0.000000000E+00

</event>
<event>
	4	1	3.267126300E-02	1.752529000E+03	7.818608000E-03	8.731959000E-02
	1	-1	0	0	501	0	0.000000000E+00	0.000000000E+00	2.423466101E+03	2.423466101E+03	5.040000000E-03	0.000000000E+00	-1.000000000E+00
	-2	-1	0	0	0	501	-0.000000000E+00	-0.000000000E+00	-3.168352441E+02	3.168352441E+02	2.550000000E-03	0.000000000E+00	1.000000000E+00
	-24	1	1	2	0	0	-8.179783216E+02	8.916765945E-01	1.538880123E+03	1.744595452E+03	7.982435975E+01	0.000000000E+00	-1.000000000E+00
	9000005	1	1	2	0	0	8.179783216E+02	-8.916765945E-01	5.677507340E+02	9.957058932E+02	1.000000000E-05	0.000000000E+00	0.000000000E+00

</event>
<event>
	4	1	3.267126300E-02	2.946574000E+03	7.818608000E-03	8.259154000E-02
	-2	-1	0	0	0	501	-0.000000000E+00	0.000000000E+00	1.827505295E+03	1.827505295E+03	5.040000000E-03	0.000000000E+00	1.000000000E+00
	1	-1	0	0	501	0	0.000000000E+00	-0.000000000E+00	-1.187725596E+03	1.187725596E+03	2.550000000E-03	0.000000000E+00	-1.000000000E+00
	-24	1	1	2	0	0	1.021328906E+03	-1.021785550E+03	3.027291028E+01	1.447220378E+03	7.982435975E+01	0.000000000E+00	-1.000000000E+00
	9000005	1	1	2	0	0	-1.021328906E+03	1.021785550E+03	6.095067883E+02	1.568010513E+03	1.000000000E-05	0.000000000E+00	0.000000000E+00

</event>
<event>
	4	1	3.267126300E-02	1.588306000E+03	7.818608000E-03	8.827764000E-02
	1	-1	0	0	501	0	0.000000000E+00	0.000000000E+00	1.025134372E+03	1.025134372E+03	5.040000000E-03	0.000000000E+00	-1.000000000E+00
	-2	-1	0	0	0	501	-0.000000000E+00	-0.000000000E+00	-6.152158886E+02	6.152158886E+02	2.550000000E-03	0.000000000E+00	1.000000000E+00
	-24	1	1	2	0	0	-4.342776617E+02	-4.616951257E+02	6.961636669E+02	9.448678511E+02	7.982435975E+01	0.000000000E+00	-1.000000000E+00
	9000005	1	1	2	0	0	4.342776617E+02	4.616951257E+02	-2.862451836E+02	6.954824094E+02	1.000000000E-05	0.000000000E+00	0.000000000E+00

</event>
<event>
	4	1	3.267126300E-02	1.453650000E+03	7.818608000E-03	8.915874000E-02
	1	-1	0	0	501	0	0.000000000E+00	0.000000000E+00	2.970730433E+03	2.970730433E+03	5.040000000E-03	0.000000000E+00	-1.000000000E+00
	-2	-1	0	0	0	501	-0.000000000E+00	-0.000000000E+00	-1.778265065E+02	1.778265065E+02	2.550000000E-03	0.000000000E+00	1.000000000E+00
	-24	1	1	2	0	0	5.099247390E+02	-5.040099477E+02	1.173038616E+03	1.377113209E+03	7.982435975E+01	0.000000000E+00	1.000000000E+00
	9000005	1	1	2	0	0	-5.099247390E+02	5.040099477E+02	1.619865310E+03	1.771443730E+03	1.000000000E-05	0.000000000E+00	0.000000000E+00

</event>
<event>
	4	1	3.267126300E-02	2.045019000E+03	7.818608000E-03	8.585857000E-02
	-2	-1	0	0	0	501	-0.000000000E+00	0.000000000E+00	4.676099173E+02	4.676099173E+02	5.040000000E-03	0.000000000E+00	1.000000000E+00
	1	-1	0	0	501	0	0.000000000E+00	-0.000000000E+00	-2.235892930E+03	2.235892930E+03	2.550000000E-03	0.000000000E+00	-1.000000000E+00
	-24	1	1	2	0	0	8.853134274E+02	3.663682650E+02	-4.193350758E+02	1.048913440E+03	7.982435975E+01	0.000000000E+00	1.000000000E+00
	9000005	1	1	2	0	0	-8.853134274E+02	-3.663682650E+02	-1.348947937E+03	1.654589408E+03	1.000000000E-05	0.000000000E+00	0.000000000E+00

</event>
<event>
	4	1	3.267126300E-02	2.115992000E+03	7.818608000E-03	8.554231000E-02
	-2	-1	0	0	0	501	-0.000000000E+00	0.000000000E+00	1.287419760E+03	1.287419760E+03	5.040000000E-03	0.000000000E+00	1.000000000E+00
	1	-1	0	0	501	0	0.000000000E+00	-0.000000000E+00	-8.694566018E+02	8.694566018E+02	2.550000000E-03	0.000000000E+00	-1.000000000E+00
	-24	1	1	2	0	0	9.262137373E+02	-3.657022556E+02	5.690314702E+02	1.149686379E+03	7.982435975E+01	0.000000000E+00	1.000000000E+00
	9000005	1	1	2	0	0	-9.262137373E+02	3.657022556E+02	-1.510683121E+02	1.007189983E+03	1.000000000E-05	0.000000000E+00	0.000000000E+00

</event>
<event>
	4	1	3.267126300E-02	1.536742000E+03	7.818608000E-03	8.860381000E-02
	1	-1	0	0	501	0	0.000000000E+00	0.000000000E+00	1.108988333E+03	1.108988333E+03	5.040000000E-03	0.000000000E+00	-1.000000000E+00
	-2	-1	0	0	0	501	-0.000000000E+00	-0.000000000E+00	-5.323719665E+02	5.323719665E+02	2.550000000E-03	0.000000000E+00	1.000000000E+00
	-24	1	1	2	0	0	1.708580832E+02	5.999990699E+02	-1.862040113E+02	6.559231897E+02	7.982435975E+01	0.000000000E+00	1.000000000E+00
	9000005	1	1	2	0	0	-1.708580832E+02	-5.999990699E+02	7.628203772E+02	9.854371093E+02	1.000000000E-05	0.000000000E+00	0.000000000E+00

</event>
<event>
	4	1	3.267126300E-02	1.730861000E+03	7.818608000E-03	8.743956000E-02
	1	-1	0	0	501	0	0.000000000E+00	0.000000000E+00	1.256723737E+03	1.256723737E+03	5.040000000E-03	0.000000000E+00	-1.000000000E+00
	-2	-1	0	0	0	501	-0.000000000E+00	-0.000000000E+00	-5.959703446E+02	5.959703446E+02	2.550000000E-03	0.000000000E+00	1.000000000E+00
	-24	1	1	2	0	0	-1.421190256E+02	6.546554052E+02	-2.522735738E+02	7.202675902E+02	7.982435975E+01	0.000000000E+00	1.000000000E+00
	9000005	1	1	2	0	0	1.421190256E+02	-6.546554052E+02	9.130269657E+02	1.132426491E+03	1.000000000E-05	0.000000000E+00	0.000000000E+00

</event>
<event>
	4	1	3.267126300E-02	1.653609000E+03	7.818608000E-03	8.788274000E-02
	3	-1	0	0	501	0	0.000000000E+00	0.000000000E+00	7.005381762E+02	7.005381835E+02	1.010000000E-01	0.000000000E+00	-1.000000000E+00
	-4	-1	0	0	0	501	-0.000000000E+00	-0.000000000E+00	-9.758285183E+02	9.758293447E+02	1.270000000E+00	0.000000000E+00	1.000000000E+00
	-24	1	1	2	0	0	3.901754661E+02	-5.108798076E+02	-6.619827685E+02	9.261901459E+02	7.982435975E+01	0.000000000E+00	1.000000000E+00
	9000005	1	1	2	0	0	-3.901754661E+02	5.108798076E+02	3.866924265E+02	7.501773823E+02	1.000000000E-05	0.000000000E+00	0.000000000E+00

</event>
<event>
	4	1	3.267126300E-02	1.481451000E+03	7.818608000E-03	8.896883000E-02
	-2	-1	0	0	0	501	-0.000000000E+00	0.000000000E+00	5.077321155E+02	5.077321155E+02	5.040000000E-03	0.000000000E+00	1.000000000E+00
	1	-1	0	0	501	0	0.000000000E+00	-0.000000000E+00	-1.080636585E+03	1.080636585E+03	2.550000000E-03	0.000000000E+00	-1.000000000E+00
	-24	1	1	2	0	0	6.990907558E+02	-1.291484469E+02	-5.019468227E+02	8.739163274E+02	7.982435975E+01	0.000000000E+00	1.000000000E+00
	9000005	1	1	2	0	0	-6.990907558E+02	1.291484469E+02	-7.095764710E+01	7.144523734E+02	1.000000000E-05	0.000000000E+00	0.000000000E+00

</event>
<event>
	4	1	3.267126300E-02	1.270312000E+03	7.818608000E-03	9.053445000E-02
	1	-1	0	0	501	0	0.000000000E+00	0.000000000E+00	4.339476127E+02	4.339476127E+02	5.040000000E-03	0.000000000E+00	-1.000000000E+00
	-2	-1	0	0	0	501	-0.000000000E+00	-0.000000000E+00	-9.296592677E+02	9.296592677E+02	2.550000000E-03	0.000000000E+00	1.000000000E+00
	-24	1	1	2	0	0	-5.530412114E+02	-3.033835343E+02	-1.968241182E+02	6.655883204E+02	7.982435975E+01	0.000000000E+00	-1.000000000E+00
	9000005	1	1	2	0	0	5.530412114E+02	3.033835343E+02	-2.988875368E+02	6.980185600E+02	1.000000000E-05	0.000000000E+00	0.000000000E+00

</event>
<event>
	4	1	3.267126300E-02	1.772777000E+03	7.818608000E-03	8.720912000E-02
	-4	-1	0	0	0	501	-0.000000000E+00	0.000000000E+00	3.880920271E+02	3.880941050E+02	1.010000000E-01	0.000000000E+00	1.000000000E+00
	3	-1	0	0	501	0	0.000000000E+00	-0.000000000E+00	-2.024472942E+03	2.024472945E+03	1.270000000E+00	0.000000000E+00	-1.000000000E+00
	-24	1	1	2	0	0	-6.205126486E+02	-1.128125316E+02	2.427891846E+01	6.361792269E+02	7.982435975E+01	0.000000000E+00	1.000000000E+00
	9000005	1	1	2	0	0	6.205126486E+02	1.128125316E+02	-1.660659834E+03	1.776387823E+03	1.000000000E-05	0.000000000E+00	0.000000000E+00

</event>
<event>
	4	1	3.267126300E-02	1.408226000E+03	7.818608000E-03	8.947886000E-02
	3	-1	0	0	501	0	0.000000000E+00	0.000000000E+00	1.561636371E+03	1.561636374E+03	1.010000000E-01	0.000000000E+00	-1.000000000E+00
	-4	-1	0	0	0	501	-0.000000000E+00	-0.000000000E+00	-3.174700005E+02	3.174725407E+02	1.270000000E+00	0.000000000E+00	1.000000000E+00
	-24	1	1	2	0	0	3.694406079E+02	-5.323313218E+02	2.642165904E+02	7.043048587E+02	7.982435975E+01	0.000000000E+00	1.000000000E+00
	9000005	1	1	2	0	0	-3.694406079E+02	5.323313218E+02	9.799497798E+02	1.174804056E+03	1.000000000E-05	0.000000000E+00	0.000000000E+00

</event>
<event>
	4	1	3.267126300E-02	1.810536000E+03	7.818608000E-03	8.700716000E-02
	1	-1	0	0	501	0	0.000000000E+00	0.000000000E+00	2.781369941E+03	2.781369941E+03	5.040000000E-03	0.000000000E+00	-1.000000000E+00
	-2	-1	0	0	0	501	-0.000000000E+00	-0.000000000E+00	-2.946427464E+02	2.946427464E+02	2.550000000E-03	0.000000000E+00	1.000000000E+00
	-24	1	1	2	0	0	2.576171675E+02	-8.617498812E+02	1.100144117E+03	1.423259804E+03	7.982435975E+01	0.000000000E+00	1.000000000E+00
	9000005	1	1	2	0	0	-2.576171675E+02	8.617498812E+02	1.386583078E+03	1.652752884E+03	1.000000000E-05	0.000000000E+00	0.000000000E+00

</event>
<event>
	4	1	3.267126300E-02	1.344581000E+03	7.818608000E-03	8.994941000E-02
	1	-1	0	0	501	0	0.000000000E+00	0.000000000E+00	3.820878133E+02	3.820878133E+02	5.040000000E-03	0.000000000E+00	-1.000000000E+00
	-2	-1	0	0	0	501	-0.000000000E+00	-0.000000000E+00	-1.182906664E+03	1.182906664E+03	2.550000000E-03	0.000000000E+00	1.000000000E+00
	-24	1	1	2	0	0	-1.624039929E+02	-6.154736246E+02	-1.587546975E+02	6.608765557E+02	7.982435975E+01	0.000000000E+00	-1.000000000E+00
	9000005	1	1	2	0	0	1.624039929E+02	6.154736246E+02	-6.420641531E+02	9.041179216E+02	1.000000000E-05	0.000000000E+00	0.000000000E+00

</event>
<event>
	4	1	3.267126300E-02	3.115739000E+03	7.818608000E-03	8.211432000E-02
	-2	-1	0	0	0	501	-0.000000000E+00	0.000000000E+00	1.043793511E+03	1.043793511E+03	5.040000000E-03	0.000000000E+00	1.000000000E+00
	1	-1	0	0	501	0	0.000000000E+00	-0.000000000E+00	-2.325131608E+03	2.325131608E+03	2.550000000E-03	0.000000000E+00	-1.000000000E+00
	-24	1	1	2	0	0	-4.321318114E+02	1.183203505E+03	-1.630347652E+03	2.061822939E+03	7.982435975E+01	0.000000000E+00	-1.000000000E+00
	9000005	1	1	2	0	0	4.321318114E+02	-1.183203505E+03	3.490095552E+02	1.307102179E+03	1.000000000E-05	0.000000000E+00	0.000000000E+00

</event>
<event>
	4	1	3.267126300E-02	1.833550000E+03	7.818608000E-03	8.688659000E-02
	-2	-1	0	0	0	501	-0.000000000E+00	0.000000000E+00	2.444837807E+02	2.444837807E+02	5.040000000E-03	0.000000000E+00	1.000000000E+00
	1	-1	0	0	501	0	0.000000000E+00	-0.000000000E+00	-3.437758328E+03	3.437758328E+03	2.550000000E-03	0.000000000E+00	-1.000000000E+00
	-24	1	1	2	0	0	1.562666884E+02	8.910660304E+02	-1.875572590E+03	2.083881574E+03	7.982435975E+01	0.000000000E+00	-1.000000000E+00
	9000005	1	1	2	0	0	-1.562666884E+02	-8.910660304E+02	-1.317701958E+03	1.598360534E+03	1.000000000E-05	0.000000000E+00	0.000000000E+00

</event>
<event>
	4	1	3.267126300E-02	1.921362000E+03	7.818608000E-03	8.644296000E-02
	-2	-1	0	0	0	501	-0.000000000E+00	0.000000000E+00	5.579324225E+02	5.579324225E+02	5.040000000E-03	0.000000000E+00	1.000000000E+00
	1	-1	0	0	501	0	0.000000000E+00	-0.000000000E+00	-1.654157345E+03	1.654157345E+03	2.550000000E-03	0.000000000E+00	-1.000000000E+00
	-24	1	1	2	0	0	6.232556692E+02	-4.372057772E+02	-1.220510438E+03	1.440699198E+03	7.982435975E+01	0.000000000E+00	-1.000000000E+00
	9000005	1	1	2	0	0	-6.232556692E+02	4.372057772E+02	1.242855161E+02	7.713905692E+02	1.000000000E-05	0.000000000E+00	0.000000000E+00

</event>
<event>
	4	1	3.267126300E-02	1.781022000E+03	7.818608000E-03	8.716457000E-02
	-2	-1	0	0	0	501	-0.000000000E+00	0.000000000E+00	1.061004149E+03	1.061004149E+03	5.040000000E-03	0.000000000E+00	1.000000000E+00
	1	-1	0	0	501	0	0.000000000E+00	-0.000000000E+00	-7.474144260E+02	7.474144260E+02	2.550000000E-03	0.000000000E+00	-1.000000000E+00
	-24	1	1	2	0	0	3.665824520E+02	-7.162815262E+02	-2.260341404E+02	8.395863744E+02	7.982435975E+01	0.000000000E+00	1.000000000E+00
	9000005	1	1	2	0	0	-3.665824520E+02	7.162815262E+02	5.396238635E+02	9.688322006E+02	1.000000000E-05	0.000000000E+00	0.000000000E+00

</event>
<event>
	4	1	3.267126300E-02	2.280702000E+03	7.818608000E-03	8.485569000E-02
	1	-1	0	0	501	0	0.000000000E+00	0.000000000E+00	6.181809992E+02	6.181809992E+02	5.040000000E-03	0.000000000E+00	-1.000000000E+00
	-2	-1	0	0	0	501	-0.000000000E+00	-0.000000000E+00	-2.103592255E+03	2.103592255E+03	2.550000000E-03	0.000000000E+00	1.000000000E+00
	-24	1	1	2	0	0	-6.144454936E+02	-8.504351876E+02	-1.272536778E+03	1.651213206E+03	7.982435975E+01	0.000000000E+00	1.000000000E+00
	9000005	1	1	2	0	0	6.144454936E+02	8.504351876E+02	-2.128744778E+02	1.070560048E+03	1.000000000E-05	0.000000000E+00	0.000000000E+00

</event>
<event>
	4	1	3.267126300E-02	1.370830000E+03	7.818608000E-03	8.975208000E-02
	-2	-1	0	0	0	501	-0.000000000E+00	0.000000000E+00	1.818367651E+03	1.818367651E+03	5.040000000E-03	0.000000000E+00	1.000000000E+00
	1	-1	0	0	501	0	0.000000000E+00	-0.000000000E+00	-2.583601947E+02	2.583601948E+02	2.550000000E-03	0.000000000E+00	-1.000000000E+00
	-24	1	1	2	0	0	6.318010062E+02	-1.373145328E+02	1.116573719E+03	1.292724483E+03	7.982435975E+01	0.000000000E+00	1.000000000E+00
	9000005	1	1	2	0	0	-6.318010062E+02	1.373145328E+02	4.434337374E+02	7.840033621E+02	1.000000000E-05	0.000000000E+00	0.000000000E+00

</event>
<event>
	4	1	3.267126300E-02	3.416304000E+03	7.818608000E-03	8.133916000E-02
	-2	-1	0	0	0	501	-0.000000000E+00	0.000000000E+00	9.503411024E+02	9.503411024E+02	5.040000000E-03	0.000000000E+00	1.000000000E+00
	1	-1	0	0	501	0	0.000000000E+00	-0.000000000E+00	-3.070249262E+03	3.070249262E+03	2.550000000E-03	0.000000000E+00	-1.000000000E+00
	-24	1	1	2	0	0	1.258376953E+03	1.149433250E+03	-9.434957985E+02	1.949683462E+03	7.982435975E+01	0.000000000E+00	1.000000000E+00
	9000005	1	1	2	0	0	-1.258376953E+03	-1.149433250E+03	-1.176412362E+03	2.070906902E+03	1.000000000E-05	0.000000000E+00	0.000000000E+00

</event>
<event>
	4	1	3.267126300E-02	1.574796000E+03	7.818608000E-03	8.836183000E-02
	-2	-1	0	0	0	501	-0.000000000E+00	0.000000000E+00	2.479305315E+02	2.479305315E+02	5.040000000E-03	0.000000000E+00	1.000000000E+00
	1	-1	0	0	501	0	0.000000000E+00	-0.000000000E+00	-2.500683728E+03	2.500683728E+03	2.550000000E-03	0.000000000E+00	-1.000000000E+00
	-24	1	1	2	0	0	-7.214328541E+02	-2.591024763E+02	-1.427595046E+03	1.622343675E+03	7.982435975E+01	0.000000000E+00	1.000000000E+00
	9000005	1	1	2	0	0	7.214328541E+02	2.591024763E+02	-8.251581507E+02	1.126270585E+03	1.000000000E-05	0.000000000E+00	0.000000000E+00

</event>
<event>
	4	1	3.267126300E-02	1.622943000E+03	7.818608000E-03	8.806576000E-02
	1	-1	0	0	501	0	0.000000000E+00	0.000000000E+00	7.272557455E+02	7.272557455E+02	5.040000000E-03	0.000000000E+00	-1.000000000E+00
	-2	-1	0	0	0	501	-0.000000000E+00	-0.000000000E+00	-9.054394186E+02	9.054394186E+02	2.550000000E-03	0.000000000E+00	1.000000000E+00
	-24	1	1	2	0	0	7.003783937E+02	1.537294588E+00	-4.976672540E+02	8.628886844E+02	7.982435975E+01	0.000000000E+00	1.000000000E+00
	9000005	1	1	2	0	0	-7.003783937E+02	-1.537294588E+00	3.194835809E+02	7.698064796E+02	1.000000000E-05	0.000000000E+00	0.000000000E+00

</event>
<event>
	4	1	3.267126300E-02	2.032362000E+03	7.818608000E-03	8.591638000E-02
	1	-1	0	0	501	0	0.000000000E+00	0.000000000E+00	1.965604760E+03	1.965604760E+03	5.040000000E-03	0.000000000E+00	-1.000000000E+00
	-2	-1	0	0	0	501	-0.000000000E+00	-0.000000000E+00	-5.253465276E+02	5.253465276E+02	2.550000000E-03	0.000000000E+00	1.000000000E+00
	-24	1	1	2	0	0	-5.650549562E+02	-8.222837874E+02	9.472455123E+02	1.378072465E+03	7.982435975E+01	0.000000000E+00	1.000000000E+00
	9000005	1	1	2	0	0	5.650549562E+02	8.222837874E+02	4.930127198E+02	1.112878822E+03	1.000000000E-05	0.000000000E+00	0.000000000E+00

</event>
<event>
	4	1	3.267126300E-02	1.346666000E+03	7.818608000E-03	8.993356000E-02
	1	-1	0	0	501	0	0.000000000E+00	0.000000000E+00	7.188183191E+02	7.188183191E+02	5.040000000E-03	0.000000000E+00	-1.000000000E+00
	-2	-1	0	0	0	501	-0.000000000E+00	-0.000000000E+00	-6.307260785E+02	6.307260785E+02	2.550000000E-03	0.000000000E+00	1.000000000E+00
	-24	1	1	2	0	0	6.215136363E+02	-2.289398644E+02	1.516888317E+02	6.841594052E+02	7.982435975E+01	0.000000000E+00	1.000000000E+00
	9000005	1	1	2	0	0	-6.215136363E+02	2.289398644E+02	-6.359659106E+01	6.653849924E+02	1.000000000E-05	0.000000000E+00	0.000000000E+00

</event>
<event>
	4	1	3.267126300E-02	1.582993000E+03	7.818608000E-03	8.831065000E-02
	-2	-1	0	0	0	501	-0.000000000E+00	0.000000000E+00	2.356891769E+02	2.356891769E+02	5.040000000E-03	0.000000000E+00	1.000000000E+00
	1	-1	0	0	501	0	0.000000000E+00	-0.000000000E+00	-2.658019764E+03	2.658019764E+03	2.550000000E-03	0.000000000E+00	-1.000000000E+00
	-24	1	1	2	0	0	-3.517168729E+02	6.265650541E+02	-6.163020279E+02	9.499940230E+02	7.982435975E+01	0.000000000E+00	1.000000000E+00
	9000005	1	1	2	0	0	3.517168729E+02	-6.265650541E+02	-1.806028559E+03	1.943714918E+03	1.000000000E-05	0.000000000E+00	0.000000000E+00

</event>
<event>
	4	1	3.267126300E-02	2.844929000E+03	7.818608000E-03	8.289454000E-02
	1	-1	0	0	501	0	0.000000000E+00	0.000000000E+00	1.729111702E+03	1.729111702E+03	5.040000000E-03	0.000000000E+00	-1.000000000E+00
	-2	-1	0	0	0	501	-0.000000000E+00	-0.000000000E+00	-1.170199318E+03	1.170199318E+03	2.550000000E-03	0.000000000E+00	1.000000000E+00
	-24	1	1	2	0	0	4.191004155E+02	1.027327876E+03	-6.256590845E+02	1.276271500E+03	7.982435975E+01	0.000000000E+00	1.000000000E+00
	9000005	1	1	2	0	0	-4.191004155E+02	-1.027327876E+03	1.184571468E+03	1.623039521E+03	1.000000000E-05	0.000000000E+00	0.000000000E+00

</event>
<event>
	4	1	3.267126300E-02	1.579744000E+03	7.818608000E-03	8.833090000E-02
	1	-1	0	0	501	0	0.000000000E+00	0.000000000E+00	2.661877700E+03	2.661877700E+03	5.040000000E-03	0.000000000E+00	-1.000000000E+00
	-2	-1	0	0	0	501	-0.000000000E+00	-0.000000000E+00	-2.343825854E+02	2.343825854E+02	2.550000000E-03	0.000000000E+00	1.000000000E+00
	-24	1	1	2	0	0	6.340998437E+02	-4.015995716E+02	1.655904261E+03	1.819822979E+03	7.982435975E+01	0.000000000E+00	-1.000000000E+00
	9000005	1	1	2	0	0	-6.340998437E+02	4.015995716E+02	7.715908536E+02	1.076437306E+03	1.000000000E-05	0.000000000E+00	0.000000000E+00

</event>
<event>
	4	1	3.267126300E-02	1.468151000E+03	7.818608000E-03	8.905913000E-02
	-2	-1	0	0	0	501	-0.000000000E+00	0.000000000E+00	5.597553027E+02	5.597553027E+02	5.040000000E-03	0.000000000E+00	1.000000000E+00
	1	-1	0	0	501	0	0.000000000E+00	-0.000000000E+00	-9.626828290E+02	9.626828290E+02	2.550000000E-03	0.000000000E+00	-1.000000000E+00
	-24	1	1	2	0	0	4.128394826E+02	-4.550752146E+02	-6.144523622E+02	8.726130432E+02	7.982435975E+01	0.000000000E+00	-1.000000000E+00
	9000005	1	1	2	0	0	-4.128394826E+02	4.550752146E+02	2.115248360E+02	6.498250885E+02	1.000000000E-05	0.000000000E+00	0.000000000E+00

</event>
<event>
	4	1	3.267126300E-02	1.381326000E+03	7.818608000E-03	8.967448000E-02
	3	-1	0	0	501	0	0.000000000E+00	0.000000000E+00	5.919543118E+02	5.919543205E+02	1.010000000E-01	0.000000000E+00	-1.000000000E+00
	-4	-1	0	0	0	501	-0.000000000E+00	-0.000000000E+00	-8.058300977E+02	8.058310985E+02	1.270000000E+00	0.000000000E+00	1.000000000E+00
	-24	1	1	2	0	0	-5.320390723E+02	4.310415306E+02	-1.786496824E+02	7.121446574E+02	7.982435975E+01	0.000000000E+00	1.000000000E+00
	9000005	1	1	2	0	0	5.320390723E+02	-4.310415306E+02	-3.522610344E+01	6.856407616E+02	1.000000000E-05	0.000000000E+00	0.000000000E+00

</event>
<event>
	4	1	3.267126300E-02	2.000925000E+03	7.818608000E-03	8.606188000E-02
	-2	-1	0	0	0	501	-0.000000000E+00	0.000000000E+00	3.707145239E+02	3.707145239E+02	5.040000000E-03	0.000000000E+00	1.000000000E+00
	1	-1	0	0	501	0	0.000000000E+00	-0.000000000E+00	-2.699988747E+03	2.699988747E+03	2.550000000E-03	0.000000000E+00	-1.000000000E+00
	-24	1	1	2	0	0	6.181831084E+02	-8.413207038E+01	-2.363622609E+03	2.445876597E+03	7.982435975E+01	0.000000000E+00	1.000000000E+00
	9000005	1	1	2	0	0	-6.181831084E+02	8.413207038E+01	3.434838605E+01	6.248266739E+02	1.000000000E-05	0.000000000E+00	0.000000000E+00

</event>
<event>
	4	1	3.267126300E-02	1.805099000E+03	7.818608000E-03	8.703593000E-02
	-2	-1	0	0	0	501	-0.000000000E+00	0.000000000E+00	1.767096077E+03	1.767096077E+03	5.040000000E-03	0.000000000E+00	1.000000000E+00
	1	-1	0	0	501	0	0.000000000E+00	-0.000000000E+00	-4.609798699E+02	4.609798699E+02	2.550000000E-03	0.000000000E+00	-1.000000000E+00
	-24	1	1	2	0	0	-5.362641483E+02	-6.849631000E+02	9.429113905E+02	1.285382240E+03	7.982435975E+01	0.000000000E+00	1.000000000E+00
	9000005	1	1	2	0	0	5.362641483E+02	6.849631000E+02	3.632048163E+02	9.426937062E+02	1.000000000E-05	0.000000000E+00	0.000000000E+00

</event>
<event>
	4	1	3.267126300E-02	1.846960000E+03	7.818608000E-03	8.681718000E-02
	1	-1	0	0	501	0	0.000000000E+00	0.000000000E+00	1.264656125E+03	1.264656125E+03	5.040000000E-03	0.000000000E+00	-1.000000000E+00
	-2	-1	0	0	0	501	-0.000000000E+00	-0.000000000E+00	-6.743458903E+02	6.743458903E+02	2.550000000E-03	0.000000000E+00	1.000000000E+00
	-24	1	1	2	0	0	7.023267102E+02	1.712097915E+02	8.960950625E+02	1.154094403E+03	7.982435975E+01	0.000000000E+00	-1.000000000E+00
	9000005	1	1	2	0	0	-7.023267102E+02	-1.712097915E+02	-3.057848273E+02	7.849076132E+02	1.000000000E-05	0.000000000E+00	0.000000000E+00

</event>
<event>
	4	1	3.267126300E-02	1.670104000E+03	7.818608000E-03	8.778601000E-02
	-2	-1	0	0	0	501	-0.000000000E+00	0.000000000E+00	5.687381801E+02	5.687381801E+02	5.040000000E-03	0.000000000E+00	1.000000000E+00
	1	-1	0	0	501	0	0.000000000E+00	-0.000000000E+00	-1.226069009E+03	1.226069009E+03	2.550000000E-03	0.000000000E+00	-1.000000000E+00
	-24	1	1	2	0	0	3.014923334E+01	7.703850911E+02	-6.687930785E+02	1.023747173E+03	7.982435975E+01	0.000000000E+00	-1.000000000E+00
	9000005	1	1	2	0	0	-3.014923334E+01	-7.703850911E+02	1.146224946E+01	7.710600159E+02	1.000000000E-05	0.000000000E+00	0.000000000E+00

</event>
<event>
	4	1	3.267126300E-02	2.036822000E+03	7.818608000E-03	8.589596000E-02
	3	-1	0	0	501	0	0.000000000E+00	0.000000000E+00	5.366018380E+02	5.366018475E+02	1.010000000E-01	0.000000000E+00	-1.000000000E+00
	-4	-1	0	0	0	501	-0.000000000E+00	-0.000000000E+00	-1.932830246E+03	1.932830664E+03	1.270000000E+00	0.000000000E+00	1.000000000E+00
	-24	1	1	2	0	0	-9.703056342E+01	-8.481410961E+02	-1.368993809E+03	1.615324806E+03	7.982435975E+01	0.000000000E+00	1.000000000E+00
	9000005	1	1	2	0	0	9.703056342E+01	8.481410961E+02	-2.723459892E+01	8.541077055E+02	1.000000000E-05	0.000000000E+00	0.000000000E+00

</event>
<event>
	4	1	3.267126300E-02	2.507276000E+03	7.818608000E-03	8.400398000E-02
	-2	-1	0	0	0	501	-0.000000000E+00	0.000000000E+00	2.413795194E+03	2.413795194E+03	5.040000000E-03	0.000000000E+00	1.000000000E+00
	1	-1	0	0	501	0	0.000000000E+00	-0.000000000E+00	-6.510945064E+02	6.510945065E+02	2.550000000E-03	0.000000000E+00	-1.000000000E+00
	-24	1	1	2	0	0	-1.402601512E+02	1.209504224E+03	5.240767661E+02	1.328006688E+03	7.982435975E+01	0.000000000E+00	-1.000000000E+00
	9000005	1	1	2	0	0	1.402601512E+02	-1.209504224E+03	1.238623921E+03	1.736883012E+03	1.000000000E-05	0.000000000E+00	0.000000000E+00

</event>
<event>
	4	1	3.267126300E-02	1.358784000E+03	7.818608000E-03	8.984205000E-02
	-2	-1	0	0	0	501	-0.000000000E+00	0.000000000E+00	6.384280472E+02	6.384280472E+02	5.040000000E-03	0.000000000E+00	1.000000000E+00
	1	-1	0	0	501	0	0.000000000E+00	-0.000000000E+00	-7.229840656E+02	7.229840656E+02	2.550000000E-03	0.000000000E+00	-1.000000000E+00
	-24	1	1	2	0	0	5.756003262E+02	-2.962253983E+02	1.562716059E+02	6.707145185E+02	7.982435975E+01	0.000000000E+00	1.000000000E+00
	9000005	1	1	2	0	0	-5.756003262E+02	2.962253983E+02	-2.408276244E+02	6.906975943E+02	1.000000000E-05	0.000000000E+00	0.000000000E+00

</event>
<event>
	4	1	3.267126300E-02	2.702859000E+03	7.818608000E-03	8.334078000E-02
	1	-1	0	0	501	0	0.000000000E+00	0.000000000E+00	2.707590538E+03	2.707590538E+03	5.040000000E-03	0.000000000E+00	-1.000000000E+00
	-2	-1	0	0	0	501	-0.000000000E+00	-0.000000000E+00	-6.745338592E+02	6.745338592E+02	2.550000000E-03	0.000000000E+00	1.000000000E+00
	-24	1	1	2	0	0	5.062522372E+02	1.092442240E+03	2.527245220E+02	1.232867790E+03	7.982435975E+01	0.000000000E+00	1.000000000E+00
	9000005	1	1	2	0	0	-5.062522372E+02	-1.092442240E+03	1.780332156E+03	2.149256607E+03	1.000000000E-05	0.000000000E+00	0.000000000E+00

</event>
<event>
	4	1	3.267126300E-02	1.560057000E+03	7.818608000E-03	8.845469000E-02
	-2	-1	0	0	0	501	-0.000000000E+00	0.000000000E+00	4.451319726E+02	4.451319726E+02	5.040000000E-03	0.000000000E+00	1.000000000E+00
	1	-1	0	0	501	0	0.000000000E+00	-0.000000000E+00	-1.366885195E+03	1.366885195E+03	2.550000000E-03	0.000000000E+00	-1.000000000E+00
	-24	1	1	2	0	0	4.030403517E+02	5.324123400E+02	-9.257531903E+02	1.144244433E+03	7.982435975E+01	0.000000000E+00	-1.000000000E+00
	9000005	1	1	2	0	0	-4.030403517E+02	-5.324123400E+02	3.999968065E+00	6.677727343E+02	1.000000000E-05	0.000000000E+00	0.000000000E+00

</event>
<event>
	4	1	3.267126300E-02	1.575551000E+03	7.818608000E-03	8.835710000E-02
	1	-1	0	0	501	0	0.000000000E+00	0.000000000E+00	1.004615425E+03	1.004615425E+03	5.040000000E-03	0.000000000E+00	-1.000000000E+00
	-2	-1	0	0	0	501	-0.000000000E+00	-0.000000000E+00	-6.177393203E+02	6.177393203E+02	2.550000000E-03	0.000000000E+00	1.000000000E+00
	-24	1	1	2	0	0	-7.318006635E+02	-2.613519507E+02	3.138921252E+02	8.418653383E+02	7.982435975E+01	0.000000000E+00	1.000000000E+00
	9000005	1	1	2	0	0	7.318006635E+02	2.613519507E+02	7.298397955E+01	7.804894070E+02	1.000000000E-05	0.000000000E+00	0.000000000E+00

</event>
<event>
	4	1	3.267126300E-02	1.442953000E+03	7.818608000E-03	8.923300000E-02
	1	-1	0	0	501	0	0.000000000E+00	0.000000000E+00	4.179877822E+02	4.179877823E+02	5.040000000E-03	0.000000000E+00	-1.000000000E+00
	-2	-1	0	0	0	501	-0.000000000E+00	-0.000000000E+00	-1.245320301E+03	1.245320301E+03	2.550000000E-03	0.000000000E+00	1.000000000E+00
	-24	1	1	2	0	0	6.742001339E+02	-2.213336679E+02	-2.794547537E+02	7.668124287E+02	7.982435975E+01	0.000000000E+00	-1.000000000E+00
	9000005	1	1	2	0	0	-6.742001339E+02	2.213336679E+02	-5.478777648E+02	8.964956543E+02	1.000000000E-05	0.000000000E+00	0.000000000E+00

</event>
<event>
	4	1	3.267126300E-02	1.847689000E+03	7.818608000E-03	8.681342000E-02
	1	-1	0	0	501	0	0.000000000E+00	0.000000000E+00	1.773656365E+03	1.773656365E+03	5.040000000E-03	0.000000000E+00	-1.000000000E+00
	-2	-1	0	0	0	501	-0.000000000E+00	-0.000000000E+00	-4.812026832E+02	4.812026832E+02	2.550000000E-03	0.000000000E+00	1.000000000E+00
	-24	1	1	2	0	0	5.617190028E+02	4.458907443E+02	1.354781432E+03	1.534976042E+03	7.982435975E+01	0.000000000E+00	-1.000000000E+00
	9000005	1	1	2	0	0	-5.617190028E+02	-4.458907443E+02	-6.232774990E+01	7.198830060E+02	1.000000000E-05	0.000000000E+00	0.000000000E+00

</event>
<event>
	4	1	3.267126300E-02	1.502640000E+03	7.818608000E-03	8.882699000E-02
	1	-1	0	0	501	0	0.000000000E+00	0.000000000E+00	6.592682242E+02	6.592682242E+02	5.040000000E-03	0.000000000E+00	-1.000000000E+00
	-2	-1	0	0	0	501	-0.000000000E+00	-0.000000000E+00	-8.562247184E+02	8.562247184E+02	2.550000000E-03	0.000000000E+00	1.000000000E+00
	-24	1	1	2	0	0	-7.088700122E+02	-1.474219767E+02	-2.929396436E+02	7.851213260E+02	7.982435975E+01	0.000000000E+00	1.000000000E+00
	9000005	1	1	2	0	0	7.088700122E+02	1.474219767E+02	9.598314939E+01	7.303716166E+02	1.000000000E-05	0.000000000E+00	0.000000000E+00

</event>
<event>
	4	1	3.267126300E-02	1.578305000E+03	7.818608000E-03	8.833988000E-02
	-2	-1	0	0	0	501	-0.000000000E+00	0.000000000E+00	4.965086888E+02	4.965086888E+02	5.040000000E-03	0.000000000E+00	1.000000000E+00
	1	-1	0	0	501	0	0.000000000E+00	-0.000000000E+00	-1.254281722E+03	1.254281722E+03	2.550000000E-03	0.000000000E+00	-1.000000000E+00
	-24	1	1	2	0	0	-8.399966922E+00	-7.133694771E+02	-7.487881621E+02	1.037314904E+03	7.982435975E+01	0.000000000E+00	1.000000000E+00
	9000005	1	1	2	0	0	8.399966922E+00	7.133694771E+02	-8.984870925E+00	7.134755064E+02	1.000000000E-05	0.000000000E+00	0.000000000E+00

</event>
<event>
	4	1	3.267126300E-02	1.398450000E+03	7.818608000E-03	8.954941000E-02
	-2	-1	0	0	0	501	-0.000000000E+00	0.000000000E+00	1.677339668E+03	1.677339668E+03	5.040000000E-03	0.000000000E+00	1.000000000E+00
	1	-1	0	0	501	0	0.000000000E+00	-0.000000000E+00	-2.914828409E+02	2.914828409E+02	2.550000000E-03	0.000000000E+00	-1.000000000E+00
	-24	1	1	2	0	0	-1.321149317E+02	6.282173709E+02	1.077190102E+03	1.256511785E+03	7.982435975E+01	0.000000000E+00	1.000000000E+00
	9000005	1	1	2	0	0	1.321149317E+02	-6.282173709E+02	3.086667243E+02	7.123107236E+02	1.000000000E-05	0.000000000E+00	0.000000000E+00

</event>
<event>
	4	1	3.267126300E-02	1.477867000E+03	7.818608000E-03	8.899306000E-02
	1	-1	0	0	501	0	0.000000000E+00	0.000000000E+00	2.062501875E+03	2.062501875E+03	5.040000000E-03	0.000000000E+00	-1.000000000E+00
	-2	-1	0	0	0	501	-0.000000000E+00	-0.000000000E+00	-2.647379793E+02	2.647379793E+02	2.550000000E-03	0.000000000E+00	1.000000000E+00
	-24	1	1	2	0	0	3.710668823E+02	6.186385817E+02	1.137382474E+03	1.349227611E+03	7.982435975E+01	0.000000000E+00	-1.000000000E+00
	9000005	1	1	2	0	0	-3.710668823E+02	-6.186385817E+02	6.603814217E+02	9.780122433E+02	1.000000000E-05	0.000000000E+00	0.000000000E+00

</event>
<event>
	4	1	3.267126300E-02	1.479844000E+03	7.818608000E-03	8.897968000E-02
	1	-1	0	0	501	0	0.000000000E+00	0.000000000E+00	7.555347897E+02	7.555347897E+02	5.040000000E-03	0.000000000E+00	-1.000000000E+00
	-2	-1	0	0	0	501	-0.000000000E+00	-0.000000000E+00	-7.246316663E+02	7.246316663E+02	2.550000000E-03	0.000000000E+00	1.000000000E+00
	-24	1	1	2	0	0	6.503823520E+02	3.306493725E+02	1.249593723E+02	7.445219839E+02	7.982435975E+01	0.000000000E+00	-1.000000000E+00
	9000005	1	1	2	0	0	-6.503823520E+02	-3.306493725E+02	-9.405624889E+01	7.356444721E+02	1.000000000E-05	0.000000000E+00	0.000000000E+00

</event>
<event>
	6	1	3.267126300E-02	1.484696000E+03	7.818608000E-03	8.894694000E-02
	2	-1	0	0	501	0	0.000000000E+00	0.000000000E+00	1.243368806E+03	1.243368806E+03	2.550000000E-03	0.000000000E+00	-1.000000000E+00
	-1	-1	0	0	0	501	-0.000000000E+00	-0.000000000E+00	-4.432156318E+02	4.432156318E+02	5.040000000E-03	0.000000000E+00	1.000000000E+00
	24	2	1	2	0	0	6.411352826E+02	-3.007138167E+02	6.461463547E+02	9.618766690E+02	7.885660674E+01	0.000000000E+00	0.000000000E+00
	-11	1	3	3	0	0	6.294775104E+02	-3.055848857E+02	6.317932106E+02	9.427548564E+02	5.110000000E-04	0.000000000E+00	1.000000000E+00
	12	1	3	3	0	0	1.165777224E+01	4.871069016E+00	1.435314416E+01	1.912181252E+01	0.000000000E+00	0.000000000E+00	-1.000000000E+00
	9000005	1	1	2	0	0	-6.411352826E+02	3.007138167E+02	1.540068198E+02	7.247077692E+02	1.000000000E-05	0.000000000E+00	0.000000000E+00

</event>
<event>
	4	1	3.267126300E-02	1.709697000E+03	7.818608000E-03	8.755853000E-02
	-2	-1	0	0	0	501	-0.000000000E+00	0.000000000E+00	1.916207070E+03	1.916207070E+03	5.040000000E-03	0.000000000E+00	1.000000000E+00
	1	-1	0	0	501	0	0.000000000E+00	-0.000000000E+00	-3.813605409E+02	3.813605410E+02	2.550000000E-03	0.000000000E+00	-1.000000000E+00
	-24	1	1	2	0	0	-8.459620741E+02	1.090703656E+02	7.611347714E+02	1.145969565E+03	7.982435975E+01	0.000000000E+00	1.000000000E+00
	9000005	1	1	2	0	0	8.459620741E+02	-1.090703656E+02	7.737117577E+02	1.151598046E+03	1.000000000E-05	0.000000000E+00	0.000000000E+00

</event>
<event>
	4	1	3.267126300E-02	1.350094000E+03	7.818608000E-03	8.990757000E-02
	1	-1	0	0	501	0	0.000000000E+00	0.000000000E+00	1.337872170E+03	1.337872170E+03	5.040000000E-03	0.000000000E+00	-1.000000000E+00
	-2	-1	0	0	0	501	-0.000000000E+00	-0.000000000E+00	-3.406067444E+02	3.406067444E+02	2.550000000E-03	0.000000000E+00	1.000000000E+00
	-24	1	1	2	0	0	6.175059019E+02	-1.670269859E+02	2.416870737E+02	6.884737634E+02	7.982435975E+01	0.000000000E+00	1.000000000E+00
	9000005	1	1	2	0	0	-6.175059019E+02	1.670269859E+02	7.555783516E+02	9.900051506E+02	1.000000000E-05	0.000000000E+00	0.000000000E+00

</event>
<event>
	4	1	3.267126300E-02	1.845856000E+03	7.818608000E-03	8.682287000E-02
	-2	-1	0	0	0	501	-0.000000000E+00	0.000000000E+00	1.041184930E+03	1.041184930E+03	5.040000000E-03	0.000000000E+00	1.000000000E+00
	1	-1	0	0	501	0	0.000000000E+00	-0.000000000E+00	-8.181023625E+02	8.181023625E+02	2.550000000E-03	0.000000000E+00	-1.000000000E+00
	-24	1	1	2	0	0	7.583102561E+02	4.883284701E+02	-7.700022586E+01	9.087354413E+02	7.982435975E+01	0.000000000E+00	-1.000000000E+00
	9000005	1	1	2	0	0	-7.583102561E+02	-4.883284701E+02	3.000827934E+02	9.505518513E+02	1.000000000E-05	0.000000000E+00	0.000000000E+00

</event>
<event>
	4	1	3.267126300E-02	1.350158000E+03	7.818608000E-03	8.990708000E-02
	-2	-1	0	0	0	501	-0.000000000E+00	0.000000000E+00	2.078243111E+02	2.078243111E+02	5.040000000E-03	0.000000000E+00	1.000000000E+00
	1	-1	0	0	501	0	0.000000000E+00	-0.000000000E+00	-2.192871246E+03	2.192871246E+03	2.550000000E-03	0.000000000E+00	-1.000000000E+00
	-24	1	1	2	0	0	1.147117533E+02	6.358677343E+02	-1.328950623E+03	1.479854131E+03	7.982435975E+01	0.000000000E+00	-1.000000000E+00
	9000005	1	1	2	0	0	-1.147117533E+02	-6.358677343E+02	-6.560963123E+02	9.208414266E+02	1.000000000E-05	0.000000000E+00	0.000000000E+00

</event>
<event>
	4	1	3.267126300E-02	1.804703000E+03	7.818608000E-03	8.703802000E-02
	-2	-1	0	0	0	501	-0.000000000E+00	0.000000000E+00	2.122378969E+03	2.122378969E+03	5.040000000E-03	0.000000000E+00	1.000000000E+00
	1	-1	0	0	501	0	0.000000000E+00	-0.000000000E+00	-3.836441141E+02	3.836441141E+02	2.550000000E-03	0.000000000E+00	-1.000000000E+00
	-24	1	1	2	0	0	1.465962776E+02	6.446211584E+02	2.182590057E+01	6.662396002E+02	7.982435975E+01	0.000000000E+00	-1.000000000E+00
	9000005	1	1	2	0	0	-1.465962776E+02	-6.446211584E+02	1.716908955E+03	1.839783483E+03	1.000000000E-05	0.000000000E+00	0.000000000E+00

</event>
<event>
	4	1	3.267126300E-02	1.558326000E+03	7.818608000E-03	8.846567000E-02
	1	-1	0	0	501	0	0.000000000E+00	0.000000000E+00	8.871496760E+02	8.871496761E+02	5.040000000E-03	0.000000000E+00	-1.000000000E+00
	-2	-1	0	0	0	501	-0.000000000E+00	-0.000000000E+00	-6.843204536E+02	6.843204536E+02	2.550000000E-03	0.000000000E+00	1.000000000E+00
	-24	1	1	2	0	0	-5.103598636E+02	-5.194761175E+02	-1.718827415E+02	7.524880279E+02	7.982435975E+01	0.000000000E+00	1.000000000E+00
	9000005	1	1	2	0	0	5.103598636E+02	5.194761175E+02	3.747119639E+02	8.189821017E+02	1.000000000E-05	0.000000000E+00	0.000000000E+00

</event>
<event>
	4	1	3.267126300E-02	1.791583000E+03	7.818608000E-03	8.710788000E-02
	3	-1	0	0	501	0	0.000000000E+00	0.000000000E+00	5.473652808E+02	5.473652901E+02	1.010000000E-01	0.000000000E+00	-1.000000000E+00
	-2	-1	0	0	0	501	-0.000000000E+00	-0.000000000E+00	-1.466008789E+03	1.466008789E+03	2.550000000E-03	0.000000000E+00	1.000000000E+00
	-24	1	1	2	0	0	8.385629667E+02	-2.095394764E+02	-7.169045024E+02	1.125796889E+03	7.982435975E+01	0.000000000E+00	1.000000000E+00
	9000005	1	1	2	0	0	-8.385629667E+02	2.095394764E+02	-2.017390054E+02	8.875771897E+02	1.000000000E-05	0.000000000E+00	0.000000000E+00

</event>
<event>
	4	1	3.267126300E-02	1.648248000E+03	7.818608000E-03	8.791444000E-02
	-2	-1	0	0	0	501	-0.000000000E+00	0.000000000E+00	3.798899777E+02	3.798899777E+02	5.040000000E-03	0.000000000E+00	1.000000000E+00
	1	-1	0	0	501	0	0.000000000E+00	-0.000000000E+00	-1.787834152E+03	1.787834152E+03	2.550000000E-03	0.000000000E+00	-1.000000000E+00
	-24	1	1	2	0	0	2.373857587E+02	-7.179934910E+02	-1.130020242E+03	1.362051514E+03	7.982435975E+01	0.000000000E+00	-1.000000000E+00
	9000005	1	1	2	0	0	-2.373857587E+02	7.179934910E+02	-2.779239323E+02	8.056726157E+02	1.000000000E-05	0.000000000E+00	0.000000000E+00

</event>
<event>
	4	1	3.267126300E-02	2.018726000E+03	7.818608000E-03	8.597915000E-02
	-2	-1	0	0	0	501	-0.000000000E+00	0.000000000E+00	5.191396818E+02	5.191396818E+02	5.040000000E-03	0.000000000E+00	1.000000000E+00
	1	-1	0	0	501	0	0.000000000E+00	-0.000000000E+00	-1.962503589E+03	1.962503589E+03	2.550000000E-03	0.000000000E+00	-1.000000000E+00
	-24	1	1	2	0	0	-3.314183519E+02	-9.499753443E+02	-7.938421959E+02	1.284075013E+03	7.982435975E+01	0.000000000E+00	-1.000000000E+00
	9000005	1	1	2	0	0	3.314183519E+02	9.499753443E+02	-6.495217114E+02	1.197568258E+03	1.000000000E-05	0.000000000E+00	0.000000000E+00

</event>
<event>
	4	1	3.267126300E-02	1.276711000E+03	7.818608000E-03	9.048240000E-02
	1	-1	0	0	501	0	0.000000000E+00	0.000000000E+00	7.815687132E+02	7.815687132E+02	5.040000000E-03	0.000000000E+00	-1.000000000E+00
	-2	-1	0	0	0	501	-0.000000000E+00	-0.000000000E+00	-5.213840809E+02	5.213840809E+02	2.550000000E-03	0.000000000E+00	1.000000000E+00
	-24	1	1	2	0	0	-3.703179639E+02	5.077985336E+02	3.206051298E+01	6.343457654E+02	7.982435975E+01	0.000000000E+00	1.000000000E+00
	9000005	1	1	2	0	0	3.703179639E+02	-5.077985336E+02	2.281241192E+02	6.686070288E+02	1.000000000E-05	0.000000000E+00	0.000000000E+00

</event>
<event>
	4	1	3.267126300E-02	1.552083000E+03	7.818608000E-03	8.850538000E-02
	-2	-1	0	0	0	501	-0.000000000E+00	0.000000000E+00	4.895161263E+02	4.895161263E+02	5.040000000E-03	0.000000000E+00	1.000000000E+00
	1	-1	0	0	501	0	0.000000000E+00	-0.000000000E+00	-1.230276840E+03	1.230276840E+03	2.550000000E-03	0.000000000E+00	-1.000000000E+00
	-24	1	1	2	0	0	-7.284208613E+02	1.831528903E+02	-5.784112021E+02	9.513534461E+02	7.982435975E+01	0.000000000E+00	-1.000000000E+00
	9000005	1	1	2	0	0	7.284208613E+02	-1.831528903E+02	-1.623495116E+02	7.684395202E+02	1.000000000E-05	0.000000000E+00	0.000000000E+00

</event>
<event>
	4	1	3.267126300E-02	1.634045000E+03	7.818608000E-03	8.799901000E-02
	1	-1	0	0	501	0	0.000000000E+00	0.000000000E+00	1.249158675E+03	1.249158675E+03	5.040000000E-03	0.000000000E+00	-1.000000000E+00
	-2	-1	0	0	0	501	-0.000000000E+00	-0.000000000E+00	-5.343806020E+02	5.343806021E+02	2.550000000E-03	0.000000000E+00	1.000000000E+00
	-24	1	1	2	0	0	-3.437315246E+02	-7.386597101E+02	3.320809513E+02	8.834133884E+02	7.982435975E+01	0.000000000E+00	-1.000000000E+00
	9000005	1	1	2	0	0	3.437315246E+02	7.386597101E+02	3.826971215E+02	9.001258885E+02	1.000000000E-05	0.000000000E+00	0.000000000E+00

</event>
<event>
	4	1	3.267126300E-02	1.465545000E+03	7.818608000E-03	8.907694000E-02
	-2	-1	0	0	0	501	-0.000000000E+00	0.000000000E+00	8.534727189E+02	8.534727190E+02	5.040000000E-03	0.000000000E+00	1.000000000E+00
	1	-1	0	0	501	0	0.000000000E+00	-0.000000000E+00	-6.291416042E+02	6.291416042E+02	2.550000000E-03	0.000000000E+00	-1.000000000E+00
	-24	1	1	2	0	0	9.995958809E+01	6.776582947E+02	3.695469022E+02	7.823998498E+02	7.982435975E+01	0.000000000E+00	1.000000000E+00
	9000005	1	1	2	0	0	-9.995958809E+01	-6.776582947E+02	-1.452157874E+02	7.002144733E+02	1.000000000E-05	0.000000000E+00	0.000000000E+00

</event>
<event>
	4	1	3.267126300E-02	1.316624000E+03	7.818608000E-03	9.016485000E-02
	-2	-1	0	0	0	501	-0.000000000E+00	0.000000000E+00	2.565869772E+02	2.565869772E+02	5.040000000E-03	0.000000000E+00	1.000000000E+00
	1	-1	0	0	501	0	0.000000000E+00	-0.000000000E+00	-1.688996756E+03	1.688996756E+03	2.550000000E-03	0.000000000E+00	-1.000000000E+00
	-24	1	1	2	0	0	-7.308430469E+01	6.435608846E+02	-5.661071230E+02	8.639219473E+02	7.982435975E+01	0.000000000E+00	1.000000000E+00
	9000005	1	1	2	0	0	7.308430469E+01	-6.435608846E+02	-8.663026557E+02	1.081661786E+03	1.000000000E-05	0.000000000E+00	0.000000000E+00

</event>
<event>
	4	1	3.267126300E-02	1.844656000E+03	7.818608000E-03	8.682906000E-02
	3	-1	0	0	501	0	0.000000000E+00	0.000000000E+00	8.568319254E+02	8.568319313E+02	1.010000000E-01	0.000000000E+00	-1.000000000E+00
	-4	-1	0	0	0	501	-0.000000000E+00	-0.000000000E+00	-9.928301879E+02	9.928310002E+02	1.270000000E+00	0.000000000E+00	1.000000000E+00
	-24	1	1	2	0	0	-1.194233460E+02	7.954103983E+02	-5.171887220E+02	9.595810231E+02	7.982435975E+01	0.000000000E+00	-1.000000000E+00
	9000005	1	1	2	0	0	1.194233460E+02	-7.954103983E+02	3.811904594E+02	8.900819084E+02	1.000000000E-05	0.000000000E+00	0.000000000E+00

</event>
<event>
	4	1	3.267126300E-02	1.549017000E+03	7.818608000E-03	8.852496000E-02
	-2	-1	0	0	0	501	-0.000000000E+00	0.000000000E+00	5.063069298E+02	5.063069298E+02	5.040000000E-03	0.000000000E+00	1.000000000E+00
	1	-1	0	0	501	0	0.000000000E+00	-0.000000000E+00	-1.184781430E+03	1.184781430E+03	2.550000000E-03	0.000000000E+00	-1.000000000E+00
	-24	1	1	2	0	0	-1.539008789E+01	7.721052253E+02	-3.212927658E+02	8.402287209E+02	7.982435975E+01	0.000000000E+00	-1.000000000E+00
	9000005	1	1	2	0	0	1.539008789E+01	-7.721052253E+02	-3.571817343E+02	8.508596388E+02	1.000000000E-05	0.000000000E+00	0.000000000E+00

</event>
<event>
	6	1	3.267126300E-02	1.968285000E+03	7.818608000E-03	8.621594000E-02
	-1	-1	0	0	0	501	-0.000000000E+00	0.000000000E+00	5.594270652E+02	5.594270652E+02	2.550000000E-03	0.000000000E+00	1.000000000E+00
	2	-1	0	0	501	0	0.000000000E+00	-0.000000000E+00	-1.731300347E+03	1.731300347E+03	5.040000000E-03	0.000000000E+00	-1.000000000E+00
	24	2	1	2	0	0	8.356940331E+02	5.126256718E+02	-5.137869368E+02	1.109944945E+03	8.265088567E+01	0.000000000E+00	0.000000000E+00
	-11	1	3	3	0	0	5.145143068E+02	3.545643382E+02	-3.018157492E+02	6.939262124E+02	5.110000000E-04	0.000000000E+00	1.000000000E+00
	12	1	3	3	0	0	3.211797263E+02	1.580613337E+02	-2.119711876E+02	4.160187329E+02	0.000000000E+00	0.000000000E+00	-1.000000000E+00
	9000005	1	1	2	0	0	-8.356940331E+02	-5.126256718E+02	-6.580863448E+02	1.180782467E+03	1.000000000E-05	0.000000000E+00	0.000000000E+00

</event>
<event>
	4	1	3.267126300E-02	1.552256000E+03	7.818608000E-03	8.850428000E-02
	-4	-1	0	0	0	501	-0.000000000E+00	0.000000000E+00	4.431987520E+02	4.432005716E+02	1.010000000E-01	0.000000000E+00	1.000000000E+00
	3	-1	0	0	501	0	0.000000000E+00	-0.000000000E+00	-1.359149244E+03	1.359149248E+03	1.270000000E+00	0.000000000E+00	-1.000000000E+00
	-24	1	1	2	0	0	-6.349264212E+02	-3.096635126E+02	-9.169706949E+01	7.168007620E+02	7.982435975E+01	0.000000000E+00	-1.000000000E+00
	9000005	1	1	2	0	0	6.349264212E+02	3.096635126E+02	-8.242534223E+02	1.085549057E+03	1.000000000E-05	0.000000000E+00	0.000000000E+00

</event>
<event>
	4	1	3.267126300E-02	1.497670000E+03	7.818608000E-03	8.886004000E-02
	-2	-1	0	0	0	501	-0.000000000E+00	0.000000000E+00	4.150174182E+02	4.150174182E+02	5.040000000E-03	0.000000000E+00	1.000000000E+00
	1	-1	0	0	501	0	0.000000000E+00	-0.000000000E+00	-1.351158112E+03	1.351158112E+03	2.550000000E-03	0.000000000E+00	-1.000000000E+00
	-24	1	1	2	0	0	3.762769712E+02	-5.736105729E+02	-1.216433017E+02	7.012720368E+02	7.982435975E+01	0.000000000E+00	1.000000000E+00
	9000005	1	1	2	0	0	-3.762769712E+02	5.736105729E+02	-8.144973922E+02	1.064903493E+03	1.000000000E-05	0.000000000E+00	0.000000000E+00

</event>
<event>
	4	1	3.267126300E-02	1.266675000E+03	7.818608000E-03	9.056418000E-02
	-2	-1	0	0	0	501	-0.000000000E+00	0.000000000E+00	4.088779351E+02	4.088779351E+02	5.040000000E-03	0.000000000E+00	1.000000000E+00
	1	-1	0	0	501	0	0.000000000E+00	-0.000000000E+00	-9.810175844E+02	9.810175844E+02	2.550000000E-03	0.000000000E+00	-1.000000000E+00
	-24	1	1	2	0	0	2.807465053E+02	-5.587995995E+02	-1.963156435E+02	6.602933840E+02	7.982435975E+01	0.000000000E+00	1.000000000E+00
	9000005	1	1	2	0	0	-2.807465053E+02	5.587995995E+02	-3.758240058E+02	7.296021354E+02	1.000000000E-05	0.000000000E+00	0.000000000E+00

</event>
<event>
	4	1	3.267126300E-02	3.319056000E+03	7.818608000E-03	8.158063000E-02
	-2	-1	0	0	0	501	-0.000000000E+00	0.000000000E+00	1.599227325E+03	1.599227325E+03	5.040000000E-03	0.000000000E+00	1.000000000E+00
	1	-1	0	0	501	0	0.000000000E+00	-0.000000000E+00	-1.722102569E+03	1.722102569E+03	2.550000000E-03	0.000000000E+00	-1.000000000E+00
	-24	1	1	2	0	0	-7.674097739E+02	-7.672421113E+02	-1.316633106E+03	1.708061147E+03	7.982435975E+01	0.000000000E+00	-1.000000000E+00
	9000005	1	1	2	0	0	7.674097739E+02	7.672421113E+02	1.193757861E+03	1.613268747E+03	1.000000000E-05	0.000000000E+00	0.000000000E+00

</event>
<event>
	6	1	3.267126300E-02	1.589894000E+03	7.818608000E-03	8.826781000E-02
	2	-1	0	0	501	0	0.000000000E+00	0.000000000E+00	5.162470622E+02	5.162470622E+02	2.550000000E-03	0.000000000E+00	-1.000000000E+00
	-1	-1	0	0	0	501	-0.000000000E+00	-0.000000000E+00	-1.224105031E+03	1.224105031E+03	5.040000000E-03	0.000000000E+00	1.000000000E+00
	24	2	1	2	0	0	-2.890788522E+02	-7.383274090E+02	-3.648317979E+02	8.764302799E+02	7.958548223E+01	0.000000000E+00	0.000000000E+00
	-11	1	3	3	0	0	-2.928586618E+02	-7.059387306E+02	-3.494087055E+02	8.403583347E+02	5.110000000E-04	0.000000000E+00	1.000000000E+00
	12	1	3	3	0	0	3.779809614E+00	-3.238867837E+01	-1.542309239E+01	3.607194514E+01	0.000000000E+00	0.000000000E+00	-1.000000000E+00
	9000005	1	1	2	0	0	2.890788522E+02	7.383274090E+02	-3.430261710E+02	8.639218134E+02	1.000000000E-05	0.000000000E+00	0.000000000E+00

</event>
<event>
	4	1	3.267126300E-02	2.306329000E+03	7.818608000E-03	8.475430000E-02
	-2	-1	0	0	0	501	-0.000000000E+00	0.000000000E+00	9.891504920E+02	9.891504920E+02	5.040000000E-03	0.000000000E+00	1.000000000E+00
	1	-1	0	0	501	0	0.000000000E+00	-0.000000000E+00	-1.344373977E+03	1.344373977E+03	2.550000000E-03	0.000000000E+00	-1.000000000E+00
	-24	1	1	2	0	0	5.748704124E+02	-6.421234375E+02	-9.509059831E+02	1.285843154E+03	7.982435975E+01	0.000000000E+00	-1.000000000E+00
	9000005	1	1	2	0	0	-5.748704124E+02	6.421234375E+02	5.956824977E+02	1.047681315E+03	1.000000000E-05	0.000000000E+00	0.000000000E+00

</event>
<event>
	4	1	3.267126300E-02	3.232784000E+03	7.818608000E-03	8.180212000E-02
	1	-1	0	0	501	0	0.000000000E+00	0.000000000E+00	1.556987027E+03	1.556987027E+03	5.040000000E-03	0.000000000E+00	-1.000000000E+00
	-2	-1	0	0	0	501	-0.000000000E+00	-0.000000000E+00	-1.678063257E+03	1.678063257E+03	2.550000000E-03	0.000000000E+00	1.000000000E+00
	-24	1	1	2	0	0	-1.049857312E+03	-8.176612683E+02	-9.770595804E+02	1.652812052E+03	7.982435975E+01	0.000000000E+00	1.000000000E+00
	9000005	1	1	2	0	0	1.049857312E+03	8.176612683E+02	8.559833512E+02	1.582238232E+03	1.000000000E-05	0.000000000E+00	0.000000000E+00

</event>
<event>
	4	1	3.267126300E-02	1.672555000E+03	7.818608000E-03	8.777174000E-02
	1	-1	0	0	501	0	0.000000000E+00	0.000000000E+00	2.094416584E+03	2.094416584E+03	5.040000000E-03	0.000000000E+00	-1.000000000E+00
	-4	-1	0	0	0	501	-0.000000000E+00	-0.000000000E+00	-3.339149091E+02	3.339173243E+02	1.270000000E+00	0.000000000E+00	1.000000000E+00
	-24	1	1	2	0	0	-5.538063367E+02	-5.499376199E+02	1.310606236E+03	1.527479452E+03	7.982435975E+01	0.000000000E+00	-1.000000000E+00
	9000005	1	1	2	0	0	5.538063367E+02	5.499376199E+02	4.498954392E+02	9.008544558E+02	1.000000000E-05	0.000000000E+00	0.000000000E+00

</event>
<event>
	4	1	3.267126300E-02	1.781534000E+03	7.818608000E-03	8.716181000E-02
	-2	-1	0	0	0	501	-0.000000000E+00	0.000000000E+00	3.067909149E+02	3.067909149E+02	5.040000000E-03	0.000000000E+00	1.000000000E+00
	1	-1	0	0	501	0	0.000000000E+00	-0.000000000E+00	-2.586341703E+03	2.586341703E+03	2.550000000E-03	0.000000000E+00	-1.000000000E+00
	-24	1	1	2	0	0	1.165889365E+02	8.138434729E+02	-1.691213270E+03	1.882155262E+03	7.982435975E+01	0.000000000E+00	-1.000000000E+00
	9000005	1	1	2	0	0	-1.165889365E+02	-8.138434729E+02	-5.883375182E+02	1.010977356E+03	1.000000000E-05	0.000000000E+00	0.000000000E+00

</event>
<event>
	4	1	3.267126300E-02	2.751223000E+03	7.818608000E-03	8.318574000E-02
	1	-1	0	0	501	0	0.000000000E+00	0.000000000E+00	1.317716374E+03	1.317716374E+03	5.040000000E-03	0.000000000E+00	-1.000000000E+00
	-2	-1	0	0	0	501	-0.000000000E+00	-0.000000000E+00	-1.436050407E+03	1.436050407E+03	2.550000000E-03	0.000000000E+00	1.000000000E+00
	-24	1	1	2	0	0	-6.675106681E+02	8.954655702E+02	-8.610151491E+02	1.412497113E+03	7.982435975E+01	0.000000000E+00	1.000000000E+00
	9000005	1	1	2	0	0	6.675106681E+02	-8.954655702E+02	7.426811167E+02	1.341269667E+03	1.000000000E-05	0.000000000E+00	0.000000000E+00

</event>
<event>
	4	1	3.267126300E-02	2.177177000E+03	7.818608000E-03	8.527988000E-02
	-2	-1	0	0	0	501	-0.000000000E+00	0.000000000E+00	9.832207474E+02	9.832207474E+02	5.040000000E-03	0.000000000E+00	1.000000000E+00
	1	-1	0	0	501	0	0.000000000E+00	-0.000000000E+00	-1.205248325E+03	1.205248325E+03	2.550000000E-03	0.000000000E+00	-1.000000000E+00
	-24	1	1	2	0	0	5.179180051E+00	8.399434746E+02	-8.048942434E+02	1.166086847E+03	7.982435975E+01	0.000000000E+00	-1.000000000E+00
	9000005	1	1	2	0	0	-5.179180051E+00	-8.399434746E+02	5.828666656E+02	1.022382225E+03	1.000000000E-05	0.000000000E+00	0.000000000E+00

</event>
<event>
	4	1	3.267126300E-02	2.511759000E+03	7.818608000E-03	8.398808000E-02
	-2	-1	0	0	0	501	-0.000000000E+00	0.000000000E+00	1.106940050E+03	1.106940050E+03	5.040000000E-03	0.000000000E+00	1.000000000E+00
	1	-1	0	0	501	0	0.000000000E+00	-0.000000000E+00	-1.424858467E+03	1.424858467E+03	2.550000000E-03	0.000000000E+00	-1.000000000E+00
	-24	1	1	2	0	0	3.132778709E+02	1.146876581E+03	-5.630407782E+02	1.317898237E+03	7.982435975E+01	0.000000000E+00	-1.000000000E+00
	9000005	1	1	2	0	0	-3.132778709E+02	-1.146876581E+03	2.451223618E+02	1.213900280E+03	1.000000000E-05	0.000000000E+00	0.000000000E+00

</event>
<event>
	4	1	3.267126300E-02	1.571360000E+03	7.818608000E-03	8.838339000E-02
	3	-1	0	0	501	0	0.000000000E+00	0.000000000E+00	1.129696002E+03	1.129696006E+03	1.010000000E-01	0.000000000E+00	-1.000000000E+00
	-4	-1	0	0	0	501	-0.000000000E+00	-0.000000000E+00	-5.464226420E+02	5.464241179E+02	1.270000000E+00	0.000000000E+00	1.000000000E+00
	-24	1	1	2	0	0	3.824166542E+02	-6.278825903E+02	2.946758319E+00	7.394995986E+02	7.982435975E+01	0.000000000E+00	1.000000000E+00
	9000005	1	1	2	0	0	-3.824166542E+02	6.278825903E+02	5.803266014E+02	9.366205256E+02	1.000000000E-05	0.000000000E+00	0.000000000E+00

</event>
<event>
	4	1	3.267126300E-02	2.735787000E+03	7.818608000E-03	8.323486000E-02
	-2	-1	0	0	0	501	-0.000000000E+00	0.000000000E+00	1.589654332E+03	1.589654332E+03	5.040000000E-03	0.000000000E+00	1.000000000E+00
	1	-1	0	0	501	0	0.000000000E+00	-0.000000000E+00	-1.177069255E+03	1.177069255E+03	2.550000000E-03	0.000000000E+00	-1.000000000E+00
	-24	1	1	2	0	0	7.559450977E+02	8.289434475E+02	-5.829666193E+02	1.266815787E+03	7.982435975E+01	0.000000000E+00	-1.000000000E+00
	9000005	1	1	2	0	0	-7.559450977E+02	-8.289434475E+02	9.955516964E+02	1.499907800E+03	1.000000000E-05	0.000000000E+00	0.000000000E+00

</event>
<event>
	4	1	3.267126300E-02	1.652627000E+03	7.818608000E-03	8.788854000E-02
	1	-1	0	0	501	0	0.000000000E+00	0.000000000E+00	1.642458834E+03	1.642458834E+03	5.040000000E-03	0.000000000E+00	-1.000000000E+00
	-2	-1	0	0	0	501	-0.000000000E+00	-0.000000000E+00	-4.157147441E+02	4.157147441E+02	2.550000000E-03	0.000000000E+00	1.000000000E+00
	-24	1	1	2	0	0	-2.870521734E+02	6.802127532E+02	1.580236187E+02	7.592310138E+02	7.982435975E+01	0.000000000E+00	1.000000000E+00
	9000005	1	1	2	0	0	2.870521734E+02	-6.802127532E+02	1.068720471E+03	1.298942564E+03	1.000000000E-05	0.000000000E+00	0.000000000E+00

</event>
<event>
	4	1	3.267126300E-02	3.088052000E+03	7.818608000E-03	8.219025000E-02
	1	-1	0	0	501	0	0.000000000E+00	0.000000000E+00	2.046914977E+03	2.046914977E+03	5.040000000E-03	0.000000000E+00	-1.000000000E+00
	-2	-1	0	0	0	501	-0.000000000E+00	-0.000000000E+00	-1.164687140E+03	1.164687140E+03	2.550000000E-03	0.000000000E+00	1.000000000E+00
	-24	1	1	2	0	0	-1.398001577E+03	5.160642183E+02	8.575422976E+02	1.721186047E+03	7.982435975E+01	0.000000000E+00	1.000000000E+00
	9000005	1	1	2	0	0	1.398001577E+03	-5.160642183E+02	2.468553920E+01	1.490416070E+03	1.000000000E-05	0.000000000E+00	0.000000000E+00

</event>
<event>
	4	1	3.267126300E-02	2.385930000E+03	7.818608000E-03	8.444790000E-02
	-2	-1	0	0	0	501	-0.000000000E+00	0.000000000E+00	1.844945445E+03	1.844945445E+03	5.040000000E-03	0.000000000E+00	1.000000000E+00
	1	-1	0	0	501	0	0.000000000E+00	-0.000000000E+00	-7.713862582E+02	7.713862582E+02	2.550000000E-03	0.000000000E+00	-1.000000000E+00
	-24	1	1	2	0	0	-7.608436644E+02	-9.440359757E+01	-4.629543498E+02	8.991628214E+02	7.982435975E+01	0.000000000E+00	-1.000000000E+00
	9000005	1	1	2	0	0	7.608436644E+02	9.440359757E+01	1.536513537E+03	1.717168882E+03	1.000000000E-05	0.000000000E+00	0.000000000E+00

</event>
<event>
	6	1	3.267126300E-02	1.503471000E+03	7.818608000E-03	8.882148000E-02
	-1	-1	0	0	0	501	-0.000000000E+00	0.000000000E+00	3.326647089E+02	3.326647089E+02	2.550000000E-03	0.000000000E+00	1.000000000E+00
	2	-1	0	0	501	0	0.000000000E+00	-0.000000000E+00	-1.698726706E+03	1.698726706E+03	5.040000000E-03	0.000000000E+00	-1.000000000E+00
	24	2	1	2	0	0	-7.342785731E+02	1.512381553E+02	-6.733679694E+02	1.010674501E+03	7.746303861E+01	0.000000000E+00	0.000000000E+00
	-11	1	3	3	0	0	-7.344803703E+02	1.485969115E+02	-6.649471847E+02	1.001846902E+03	5.110000000E-04	0.000000000E+00	1.000000000E+00
	12	1	3	3	0	0	2.017972321E-01	2.641243845E+00	-8.420784705E+00	8.827599120E+00	0.000000000E+00	0.000000000E+00	-1.000000000E+00
	9000005	1	1	2	0	0	7.342785731E+02	-1.512381553E+02	-6.926940281E+02	1.020716914E+03	1.000000000E-05	0.000000000E+00	0.000000000E+00

</event>
<event>
	4	1	3.267126300E-02	1.388231000E+03	7.818608000E-03	8.962382000E-02
	-4	-1	0	0	0	501	-0.000000000E+00	0.000000000E+00	4.361907473E+02	4.361925961E+02	5.040000000E-03	0.000000000E+00	1.000000000E+00
	1	-1	0	0	501	0	0.000000000E+00	-0.000000000E+00	-1.104550934E+03	1.104550934E+03	1.270000000E+00	0.000000000E+00	-1.000000000E+00
	-24	1	1	2	0	0	6.644908856E+02	-1.817387473E+02	-4.058159127E+02	8.035145256E+02	7.982435975E+01	0.000000000E+00	-1.000000000E+00
	9000005	1	1	2	0	0	-6.644908856E+02	1.817387473E+02	-2.625442739E+02	7.372290045E+02	1.000000000E-05	0.000000000E+00	0.000000000E+00

</event>
<event>
	6	1	3.267126300E-02	1.931991000E+03	7.818608000E-03	8.639094000E-02
	2	-1	0	0	501	0	0.000000000E+00	0.000000000E+00	8.404940915E+02	8.404940916E+02	2.550000000E-03	0.000000000E+00	-1.000000000E+00
	-1	-1	0	0	0	501	-0.000000000E+00	-0.000000000E+00	-1.110236051E+03	1.110236051E+03	5.040000000E-03	0.000000000E+00	1.000000000E+00
	24	2	1	2	0	0	-1.303700770E+02	8.296628018E+02	3.436529522E+02	9.107349313E+02	7.748575288E+01	0.000000000E+00	0.000000000E+00
	-11	1	3	3	0	0	-1.316770313E+02	6.943737107E+02	2.690047092E+02	7.562124200E+02	5.110000000E-04	0.000000000E+00	1.000000000E+00
	12	1	3	3	0	0	1.306954328E+00	1.352890911E+02	7.464824301E+01	1.545225113E+02	0.000000000E+00	0.000000000E+00	-1.000000000E+00
	9000005	1	1	2	0	0	1.303700770E+02	-8.296628018E+02	-6.133949116E+02	1.039995211E+03	1.000000000E-05	0.000000000E+00	0.000000000E+00

</event>
<event>
	4	1	3.267126300E-02	1.435410000E+03	7.818608000E-03	8.928578000E-02
	-2	-1	0	0	0	501	-0.000000000E+00	0.000000000E+00	2.986123270E+02	2.986123270E+02	5.040000000E-03	0.000000000E+00	1.000000000E+00
	1	-1	0	0	501	0	0.000000000E+00	-0.000000000E+00	-1.724981453E+03	1.724981453E+03	2.550000000E-03	0.000000000E+00	-1.000000000E+00
	-24	1	1	2	0	0	3.910525850E+02	4.838624979E+02	-1.213567961E+03	1.366076194E+03	7.982435975E+01	0.000000000E+00	-1.000000000E+00
	9000005	1	1	2	0	0	-3.910525850E+02	-4.838624979E+02	-2.128011649E+02	6.575175868E+02	1.000000000E-05	0.000000000E+00	0.000000000E+00

</event>
<event>
	4	1	3.267126300E-02	1.384055000E+03	7.818608000E-03	8.965442000E-02
	1	-1	0	0	501	0	0.000000000E+00	0.000000000E+00	1.358316007E+03	1.358316007E+03	5.040000000E-03	0.000000000E+00	-1.000000000E+00
	-2	-1	0	0	0	501	-0.000000000E+00	-0.000000000E+00	-3.525705532E+02	3.525705532E+02	2.550000000E-03	0.000000000E+00	1.000000000E+00
	-24	1	1	2	0	0	4.166747936E+02	-5.492324783E+02	4.783999288E+02	8.429191059E+02	7.982435975E+01	0.000000000E+00	1.000000000E+00
	9000005	1	1	2	0	0	-4.166747936E+02	5.492324783E+02	5.273455249E+02	8.679674542E+02	1.000000000E-05	0.000000000E+00	0.000000000E+00

</event>
<event>
	4	1	3.267126300E-02	2.878571000E+03	7.818608000E-03	8.279282000E-02
	1	-1	0	0	501	0	0.000000000E+00	0.000000000E+00	2.059305033E+03	2.059305033E+03	5.040000000E-03	0.000000000E+00	-1.000000000E+00
	-2	-1	0	0	0	501	-0.000000000E+00	-0.000000000E+00	-1.005942744E+03	1.005942744E+03	2.550000000E-03	0.000000000E+00	1.000000000E+00
	-24	1	1	2	0	0	8.246104735E+02	1.118022513E+03	9.232354866E+02	1.669937863E+03	7.982435975E+01	0.000000000E+00	1.000000000E+00
	9000005	1	1	2	0	0	-8.246104735E+02	-1.118022513E+03	1.301268017E+02	1.395309915E+03	1.000000000E-05	0.000000000E+00	0.000000000E+00

</event>
<event>
	4	1	3.267126300E-02	1.579997000E+03	7.818608000E-03	8.832932000E-02
	1	-1	0	0	501	0	0.000000000E+00	0.000000000E+00	1.483234275E+03	1.483234275E+03	5.040000000E-03	0.000000000E+00	-1.000000000E+00
	-2	-1	0	0	0	501	-0.000000000E+00	-0.000000000E+00	-4.207678532E+02	4.207678532E+02	2.550000000E-03	0.000000000E+00	1.000000000E+00
	-24	1	1	2	0	0	-6.425926905E+02	-1.011398770E+02	1.068486186E+03	1.253470901E+03	7.982435975E+01	0.000000000E+00	1.000000000E+00
	9000005	1	1	2	0	0	6.425926905E+02	1.011398770E+02	-6.019764131E+00	6.505312277E+02	1.000000000E-05	0.000000000E+00	0.000000000E+00

</event>
<event>
	4	1	3.267126300E-02	1.208083000E+03	7.818608000E-03	9.105811000E-02
	1	-1	0	0	501	0	0.000000000E+00	0.000000000E+00	5.054401714E+02	5.054401714E+02	5.040000000E-03	0.000000000E+00	-1.000000000E+00
	-2	-1	0	0	0	501	-0.000000000E+00	-0.000000000E+00	-7.218782632E+02	7.218782632E+02	2.550000000E-03	0.000000000E+00	1.000000000E+00
	-24	1	1	2	0	0	1.223724338E+02	-5.881949405E+02	-1.363082243E+02	6.212086292E+02	7.982435975E+01	0.000000000E+00	1.000000000E+00
	9000005	1	1	2	0	0	-1.223724338E+02	5.881949405E+02	-8.012986745E+01	6.061098054E+02	1.000000000E-05	0.000000000E+00	0.000000000E+00

</event>
<event>
	4	1	3.267126300E-02	2.547931000E+03	7.818608000E-03	8.386106000E-02
	1	-1	0	0	501	0	0.000000000E+00	0.000000000E+00	1.203394072E+03	1.203394072E+03	5.040000000E-03	0.000000000E+00	-1.000000000E+00
	-2	-1	0	0	0	501	-0.000000000E+00	-0.000000000E+00	-1.348675806E+03	1.348675806E+03	2.550000000E-03	0.000000000E+00	1.000000000E+00
	-24	1	1	2	0	0	1.207324662E+02	-1.023828716E+03	6.748260873E+02	1.234732256E+03	7.982435975E+01	0.000000000E+00	-1.000000000E+00
	9000005	1	1	2	0	0	-1.207324662E+02	1.023828716E+03	-8.201078217E+02	1.317337621E+03	1.000000000E-05	0.000000000E+00	0.000000000E+00

</event>
<event>
	4	1	3.267126300E-02	1.364331000E+03	7.818608000E-03	8.980050000E-02
	1	-1	0	0	501	0	0.000000000E+00	0.000000000E+00	6.782575088E+02	6.782575089E+02	5.040000000E-03	0.000000000E+00	-1.000000000E+00
	-2	-1	0	0	0	501	-0.000000000E+00	-0.000000000E+00	-6.860959615E+02	6.860959615E+02	2.550000000E-03	0.000000000E+00	1.000000000E+00
	-24	1	1	2	0	0	-5.073921115E+02	3.453237237E+02	-2.962968315E+02	6.861916421E+02	7.982435975E+01	0.000000000E+00	-1.000000000E+00
	9000005	1	1	2	0	0	5.073921115E+02	-3.453237237E+02	2.884583788E+02	6.781618282E+02	1.000000000E-05	0.000000000E+00	0.000000000E+00

</event>
<event>
	4	1	3.267126300E-02	1.360062000E+03	7.818608000E-03	8.983246000E-02
	1	-1	0	0	501	0	0.000000000E+00	0.000000000E+00	5.994206031E+02	5.994206031E+02	5.040000000E-03	0.000000000E+00	-1.000000000E+00
	-2	-1	0	0	0	501	-0.000000000E+00	-0.000000000E+00	-7.714813642E+02	7.714813642E+02	2.550000000E-03	0.000000000E+00	1.000000000E+00
	-24	1	1	2	0	0	-5.439033251E+02	3.990014456E+02	-2.078254160E+01	6.795857731E+02	7.982435975E+01	0.000000000E+00	-1.000000000E+00
	9000005	1	1	2	0	0	5.439033251E+02	-3.990014456E+02	-1.512782195E+02	6.913161941E+02	1.000000000E-05	0.000000000E+00	0.000000000E+00

</event>
<event>
	4	1	3.267126300E-02	1.840072000E+03	7.818608000E-03	8.685275000E-02
	1	-1	0	0	501	0	0.000000000E+00	0.000000000E+00	9.224249232E+02	9.224249232E+02	5.040000000E-03	0.000000000E+00	-1.000000000E+00
	-2	-1	0	0	0	501	-0.000000000E+00	-0.000000000E+00	-9.176533061E+02	9.176533061E+02	2.550000000E-03	0.000000000E+00	1.000000000E+00
	-24	1	1	2	0	0	3.558573613E+02	-7.433869904E+02	-4.026106127E+02	9.207203228E+02	7.982435975E+01	0.000000000E+00	-1.000000000E+00
	9000005	1	1	2	0	0	-3.558573613E+02	7.433869904E+02	4.073822297E+02	9.193579064E+02	1.000000000E-05	0.000000000E+00	0.000000000E+00

</event>
<event>
	6	1	3.267126300E-02	1.455940000E+03	7.818608000E-03	8.914293000E-02
	2	-1	0	0	501	0	0.000000000E+00	0.000000000E+00	2.034913407E+03	2.034913407E+03	2.550000000E-03	0.000000000E+00	-1.000000000E+00
	-1	-1	0	0	0	501	-0.000000000E+00	-0.000000000E+00	-2.604240813E+02	2.604240813E+02	5.040000000E-03	0.000000000E+00	1.000000000E+00
	24	2	1	2	0	0	3.934739816E+02	5.689990968E+02	1.235720908E+03	1.418494769E+03	8.086718074E+01	0.000000000E+00	0.000000000E+00
	-11	1	3	3	0	0	3.685147480E+02	5.033087408E+02	1.071183909E+03	1.239579677E+03	5.110000000E-04	0.000000000E+00	1.000000000E+00
	12	1	3	3	0	0	2.495923361E+01	6.569035604E+01	1.645369989E+02	1.789150922E+02	0.000000000E+00	0.000000000E+00	-1.000000000E+00
	9000005	1	1	2	0	0	-3.934739816E+02	-5.689990968E+02	5.387684177E+02	8.768427192E+02	1.000000000E-05	0.000000000E+00	0.000000000E+00

</event>
<event>
	4	1	3.267126300E-02	1.809007000E+03	7.818608000E-03	8.701525000E-02
	-2	-1	0	0	0	501	-0.000000000E+00	0.000000000E+00	4.878526899E+02	4.878526899E+02	5.040000000E-03	0.000000000E+00	1.000000000E+00
	1	-1	0	0	501	0	0.000000000E+00	-0.000000000E+00	-1.676994283E+03	1.676994283E+03	2.550000000E-03	0.000000000E+00	-1.000000000E+00
	-24	1	1	2	0	0	5.145330099E+02	-5.483476734E+02	2.041974096E+00	7.561782114E+02	7.982435975E+01	0.000000000E+00	1.000000000E+00
	9000005	1	1	2	0	0	-5.145330099E+02	5.483476734E+02	-1.191183568E+03	1.408668762E+03	1.000000000E-05	0.000000000E+00	0.000000000E+00

</event>
<event>
	4	1	3.267126300E-02	1.359773000E+03	7.818608000E-03	8.983463000E-02
	-4	-1	0	0	0	501	-0.000000000E+00	0.000000000E+00	5.655898438E+02	5.655912697E+02	5.040000000E-03	0.000000000E+00	1.000000000E+00
	1	-1	0	0	501	0	0.000000000E+00	-0.000000000E+00	-8.172788557E+02	8.172788558E+02	1.270000000E+00	0.000000000E+00	-1.000000000E+00
	-24	1	1	2	0	0	4.551979039E+01	6.519380725E+02	5.556002910E+01	6.607224432E+02	7.982435975E+01	0.000000000E+00	1.000000000E+00
	9000005	1	1	2	0	0	-4.551979039E+01	-6.519380725E+02	-3.072490410E+02	7.221476822E+02	1.000000000E-05	0.000000000E+00	0.000000000E+00

</event>
<event>
	4	1	3.267126300E-02	1.951753000E+03	7.818608000E-03	8.629516000E-02
	1	-1	0	0	501	0	0.000000000E+00	0.000000000E+00	2.178704157E+03	2.178704157E+03	5.040000000E-03	0.000000000E+00	-1.000000000E+00
	-2	-1	0	0	0	501	-0.000000000E+00	-0.000000000E+00	-4.371108623E+02	4.371108623E+02	2.550000000E-03	0.000000000E+00	1.000000000E+00
	-24	1	1	2	0	0	-3.392709973E+02	-9.106515146E+02	9.647293344E+02	1.371665268E+03	7.982435975E+01	0.000000000E+00	-1.000000000E+00
	9000005	1	1	2	0	0	3.392709973E+02	9.106515146E+02	7.768639602E+02	1.244149751E+03	1.000000000E-05	0.000000000E+00	0.000000000E+00

</event>
<event>
	4	1	3.267126300E-02	1.456038000E+03	7.818608000E-03	8.914225000E-02
	-2	-1	0	0	0	501	-0.000000000E+00	0.000000000E+00	1.612425442E+02	1.612425443E+02	5.040000000E-03	0.000000000E+00	1.000000000E+00
	1	-1	0	0	501	0	0.000000000E+00	-0.000000000E+00	-3.287044298E+03	3.287044298E+03	2.550000000E-03	0.000000000E+00	-1.000000000E+00
	-24	1	1	2	0	0	-7.055091830E+02	3.835305808E+01	-1.961158797E+03	2.086080036E+03	7.982435975E+01	0.000000000E+00	-1.000000000E+00
	9000005	1	1	2	0	0	7.055091830E+02	-3.835305808E+01	-1.164642957E+03	1.362206806E+03	1.000000000E-05	0.000000000E+00	0.000000000E+00

</event>
<event>
	6	1	3.267126300E-02	2.117223000E+03	7.818608000E-03	8.553694000E-02
	2	-1	0	0	501	0	0.000000000E+00	0.000000000E+00	2.442229083E+03	2.442229083E+03	2.550000000E-03	0.000000000E+00	-1.000000000E+00
	-1	-1	0	0	0	501	-0.000000000E+00	-0.000000000E+00	-4.588671753E+02	4.588671753E+02	5.040000000E-03	0.000000000E+00	1.000000000E+00
	24	2	1	2	0	0	4.382904852E+02	-8.390402503E+02	3.494098987E+02	1.012740821E+03	8.642685608E+01	0.000000000E+00	0.000000000E+00
	-11	1	3	3	0	0	2.922506585E+02	-5.558369253E+02	1.878277610E+02	6.554726560E+02	5.110000000E-04	0.000000000E+00	1.000000000E+00
	12	1	3	3	0	0	1.460398267E+02	-2.832033250E+02	1.615821376E+02	3.572681646E+02	0.000000000E+00	0.000000000E+00	-1.000000000E+00
	9000005	1	1	2	0	0	-4.382904852E+02	8.390402503E+02	1.633952009E+03	1.888355438E+03	1.000000000E-05	0.000000000E+00	0.000000000E+00

</event>
<event>
	4	1	3.267126300E-02	1.609941000E+03	7.818608000E-03	8.814464000E-02
	-2	-1	0	0	0	501	-0.000000000E+00	0.000000000E+00	3.978591249E+02	3.978591249E+02	5.040000000E-03	0.000000000E+00	1.000000000E+00
	1	-1	0	0	501	0	0.000000000E+00	-0.000000000E+00	-1.628661503E+03	1.628661503E+03	2.550000000E-03	0.000000000E+00	-1.000000000E+00
	-24	1	1	2	0	0	-7.500107179E+02	2.851253977E+02	-5.774441073E+02	9.917793076E+02	7.982435975E+01	0.000000000E+00	1.000000000E+00
	9000005	1	1	2	0	0	7.500107179E+02	-2.851253977E+02	-6.533582704E+02	1.034741320E+03	1.000000000E-05	0.000000000E+00	0.000000000E+00

</event>
<event>
	4	1	3.267126300E-02	3.738671000E+03	7.818608000E-03	8.059445000E-02
	-2	-1	0	0	0	501	-0.000000000E+00	0.000000000E+00	1.637331173E+03	1.637331173E+03	5.040000000E-03	0.000000000E+00	1.000000000E+00
	1	-1	0	0	501	0	0.000000000E+00	-0.000000000E+00	-2.134214212E+03	2.134214212E+03	2.550000000E-03	0.000000000E+00	-1.000000000E+00
	-24	1	1	2	0	0	1.652044498E+03	-6.751692039E+02	3.095966034E+02	1.813098580E+03	7.982435975E+01	0.000000000E+00	1.000000000E+00
	9000005	1	1	2	0	0	-1.652044498E+03	6.751692039E+02	-8.064796423E+02	1.958446805E+03	1.000000000E-05	0.000000000E+00	0.000000000E+00

</event>
<event>
	4	1	3.267126300E-02	2.724060000E+03	7.818608000E-03	8.327240000E-02
	-2	-1	0	0	0	501	-0.000000000E+00	0.000000000E+00	1.047713397E+03	1.047713397E+03	5.040000000E-03	0.000000000E+00	1.000000000E+00
	1	-1	0	0	501	0	0.000000000E+00	-0.000000000E+00	-1.770641955E+03	1.770641955E+03	2.550000000E-03	0.000000000E+00	-1.000000000E+00
	-24	1	1	2	0	0	-1.018393456E+03	-5.322113470E+02	-1.116098714E+03	1.603877307E+03	7.982435975E+01	0.000000000E+00	-1.000000000E+00
	9000005	1	1	2	0	0	1.018393456E+03	5.322113470E+02	3.931701560E+02	1.214478045E+03	1.000000000E-05	0.000000000E+00	0.000000000E+00

</event>
<event>
	6	1	3.267126300E-02	1.669555000E+03	7.818608000E-03	8.778921000E-02
	4	-1	0	0	501	0	0.000000000E+00	0.000000000E+00	3.620506843E+02	3.620529118E+02	1.270000000E+00	0.000000000E+00	-1.000000000E+00
	-3	-1	0	0	0	501	-0.000000000E+00	-0.000000000E+00	-1.924734085E+03	1.924734088E+03	1.010000000E-01	0.000000000E+00	1.000000000E+00
	24	2	1	2	0	0	3.471735502E+02	-7.563970032E+02	-7.425674432E+02	1.118345266E+03	8.138689098E+01	0.000000000E+00	0.000000000E+00
	-11	1	3	3	0	0	3.333566715E+02	-6.784058773E+02	-6.885038566E+02	1.022447439E+03	5.110000000E-04	0.000000000E+00	1.000000000E+00
	12	1	3	3	0	0	1.381687865E+01	-7.799112588E+01	-5.406358664E+01	9.589782715E+01	0.000000000E+00	0.000000000E+00	-1.000000000E+00
	9000005	1	1	2	0	0	-3.471735502E+02	7.563970032E+02	-8.201159574E+02	1.168441733E+03	1.000000000E-05	0.000000000E+00	0.000000000E+00

</event>
<event>
	4	1	3.267126300E-02	1.900656000E+03	7.818608000E-03	8.654530000E-02
	1	-1	0	0	501	0	0.000000000E+00	0.000000000E+00	1.839107613E+03	1.839107613E+03	5.040000000E-03	0.000000000E+00	-1.000000000E+00
	-2	-1	0	0	0	501	-0.000000000E+00	-0.000000000E+00	-4.910662529E+02	4.910662529E+02	2.550000000E-03	0.000000000E+00	1.000000000E+00
	-24	1	1	2	0	0	-2.213648697E+02	-9.054888039E+02	4.592548579E+02	1.042208872E+03	7.982435975E+01	0.000000000E+00	1.000000000E+00
	9000005	1	1	2	0	0	2.213648697E+02	9.054888039E+02	8.887865020E+02	1.287964994E+03	1.000000000E-05	0.000000000E+00	0.000000000E+00

</event>
<event>
	4	1	3.267126300E-02	1.762620000E+03	7.818608000E-03	8.726434000E-02
	1	-1	0	0	501	0	0.000000000E+00	0.000000000E+00	1.180518206E+03	1.180518206E+03	5.040000000E-03	0.000000000E+00	-1.000000000E+00
	-2	-1	0	0	0	501	-0.000000000E+00	-0.000000000E+00	-6.579375123E+02	6.579375123E+02	2.550000000E-03	0.000000000E+00	1.000000000E+00
	-24	1	1	2	0	0	-7.490891993E+02	-3.519720147E+02	-4.847238725E+01	8.329108166E+02	7.982435975E+01	0.000000000E+00	1.000000000E+00
	9000005	1	1	2	0	0	7.490891993E+02	3.519720147E+02	5.710530805E+02	1.005544901E+03	1.000000000E-05	0.000000000E+00	0.000000000E+00

</event>
<event>
	4	1	3.267126300E-02	2.052427000E+03	7.818608000E-03	8.582494000E-02
	1	-1	0	0	501	0	0.000000000E+00	0.000000000E+00	2.560933672E+03	2.560933672E+03	5.040000000E-03	0.000000000E+00	-1.000000000E+00
	-2	-1	0	0	0	501	-0.000000000E+00	-0.000000000E+00	-4.112228639E+02	4.112228639E+02	2.550000000E-03	0.000000000E+00	1.000000000E+00
	-24	1	1	2	0	0	5.563786992E+02	6.001290387E+02	1.835445432E+02	8.424800578E+02	7.982435975E+01	0.000000000E+00	-1.000000000E+00
	9000005	1	1	2	0	0	-5.563786992E+02	-6.001290387E+02	1.966166265E+03	2.129676478E+03	1.000000000E-05	0.000000000E+00	0.000000000E+00

</event>
<event>
	4	1	3.267126300E-02	1.491814000E+03	7.818608000E-03	8.889915000E-02
	-2	-1	0	0	0	501	-0.000000000E+00	0.000000000E+00	7.633724277E+02	7.633724277E+02	5.040000000E-03	0.000000000E+00	1.000000000E+00
	1	-1	0	0	501	0	0.000000000E+00	-0.000000000E+00	-7.288410404E+02	7.288410405E+02	2.550000000E-03	0.000000000E+00	-1.000000000E+00
	-24	1	1	2	0	0	4.520441715E+02	-5.829478100E+02	-7.770331209E+01	7.460441108E+02	7.982435975E+01	0.000000000E+00	1.000000000E+00
	9000005	1	1	2	0	0	-4.520441715E+02	5.829478100E+02	1.122346994E+02	7.461693574E+02	1.000000000E-05	0.000000000E+00	0.000000000E+00

</event>
<event>
	4	1	3.267126300E-02	1.404669000E+03	7.818608000E-03	8.950446000E-02
	-2	-1	0	0	0	501	-0.000000000E+00	0.000000000E+00	1.744353282E+02	1.744353283E+02	5.040000000E-03	0.000000000E+00	1.000000000E+00
	1	-1	0	0	501	0	0.000000000E+00	-0.000000000E+00	-2.827831256E+03	2.827831256E+03	2.550000000E-03	0.000000000E+00	-1.000000000E+00
	-24	1	1	2	0	0	-6.681215739E+01	6.838422473E+02	-1.044316521E+03	1.252626444E+03	7.982435975E+01	0.000000000E+00	1.000000000E+00
	9000005	1	1	2	0	0	6.681215739E+01	-6.838422473E+02	-1.609079407E+03	1.749640140E+03	1.000000000E-05	0.000000000E+00	0.000000000E+00

</event>
<event>
	4	1	3.267126300E-02	2.235078000E+03	7.818608000E-03	8.503968000E-02
	1	-1	0	0	501	0	0.000000000E+00	0.000000000E+00	1.256344335E+03	1.256344335E+03	5.040000000E-03	0.000000000E+00	-1.000000000E+00
	-2	-1	0	0	0	501	-0.000000000E+00	-0.000000000E+00	-9.940691017E+02	9.940691018E+02	2.550000000E-03	0.000000000E+00	1.000000000E+00
	-24	1	1	2	0	0	-6.281810490E+01	1.114242694E+03	1.161598096E+02	1.124876849E+03	7.982435975E+01	0.000000000E+00	1.000000000E+00
	9000005	1	1	2	0	0	6.281810490E+01	-1.114242694E+03	1.461154237E+02	1.125536588E+03	1.000000000E-05	0.000000000E+00	0.000000000E+00

</event>
<event>
	4	1	3.267126300E-02	1.733374000E+03	7.818608000E-03	8.742555000E-02
	1	-1	0	0	501	0	0.000000000E+00	0.000000000E+00	1.733803142E+03	1.733803142E+03	5.040000000E-03	0.000000000E+00	-1.000000000E+00
	-2	-1	0	0	0	501	-0.000000000E+00	-0.000000000E+00	-4.332363497E+02	4.332363497E+02	2.550000000E-03	0.000000000E+00	1.000000000E+00
	-24	1	1	2	0	0	-1.239228290E+02	-8.526306227E+02	5.578726193E+02	1.029528841E+03	7.982435975E+01	0.000000000E+00	-1.000000000E+00
	9000005	1	1	2	0	0	1.239228290E+02	8.526306227E+02	7.426941730E+02	1.137510651E+03	1.000000000E-05	0.000000000E+00	0.000000000E+00

</event>
<event>
	4	1	3.267126300E-02	1.770128000E+03	7.818608000E-03	8.722348000E-02
	-2	-1	0	0	0	501	-0.000000000E+00	0.000000000E+00	9.761498518E+02	9.761498518E+02	5.040000000E-03	0.000000000E+00	1.000000000E+00
	1	-1	0	0	501	0	0.000000000E+00	-0.000000000E+00	-8.024775230E+02	8.024775230E+02	2.550000000E-03	0.000000000E+00	-1.000000000E+00
	-24	1	1	2	0	0	7.712519802E+02	3.654545273E+02	-1.416076683E+02	8.687987618E+02	7.982435975E+01	0.000000000E+00	-1.000000000E+00
	9000005	1	1	2	0	0	-7.712519802E+02	-3.654545273E+02	3.152799971E+02	9.098286130E+02	1.000000000E-05	0.000000000E+00	0.000000000E+00

</event>
<event>
	4	1	3.267126300E-02	1.972622000E+03	7.818608000E-03	8.619529000E-02
	1	-1	0	0	501	0	0.000000000E+00	0.000000000E+00	2.001410975E+03	2.001410975E+03	5.040000000E-03	0.000000000E+00	-1.000000000E+00
	-2	-1	0	0	0	501	-0.000000000E+00	-0.000000000E+00	-4.860617141E+02	4.860617141E+02	2.550000000E-03	0.000000000E+00	1.000000000E+00
	-24	1	1	2	0	0	-6.696635360E+02	-1.095820700E+02	1.658713706E+03	1.793923234E+03	7.982435975E+01	0.000000000E+00	-1.000000000E+00
	9000005	1	1	2	0	0	6.696635360E+02	1.095820700E+02	-1.433644459E+02	6.935494546E+02	1.000000000E-05	0.000000000E+00	0.000000000E+00

</event>
<event>
	4	1	3.267126300E-02	1.334175000E+03	7.818608000E-03	9.002894000E-02
	-2	-1	0	0	0	501	-0.000000000E+00	0.000000000E+00	3.001946547E+02	3.001946548E+02	5.040000000E-03	0.000000000E+00	1.000000000E+00
	1	-1	0	0	501	0	0.000000000E+00	-0.000000000E+00	-1.482391183E+03	1.482391183E+03	2.550000000E-03	0.000000000E+00	-1.000000000E+00
	-24	1	1	2	0	0	-4.371772166E+02	-4.190438003E+02	-9.593727493E+02	1.137316854E+03	7.982435975E+01	0.000000000E+00	-1.000000000E+00
	9000005	1	1	2	0	0	4.371772166E+02	4.190438003E+02	-2.228237789E+02	6.452689840E+02	1.000000000E-05	0.000000000E+00	0.000000000E+00

</event>
<event>
	4	1	3.267126300E-02	1.373837000E+03	7.818608000E-03	8.972977000E-02
	1	-1	0	0	501	0	0.000000000E+00	0.000000000E+00	1.633964513E+03	1.633964513E+03	5.040000000E-03	0.000000000E+00	-1.000000000E+00
	-2	-1	0	0	0	501	-0.000000000E+00	-0.000000000E+00	-2.887805300E+02	2.887805300E+02	2.550000000E-03	0.000000000E+00	1.000000000E+00
	-24	1	1	2	0	0	-1.240359590E+02	6.577603318E+02	4.737809181E+02	8.239380195E+02	7.982435975E+01	0.000000000E+00	1.000000000E+00
	9000005	1	1	2	0	0	1.240359590E+02	-6.577603318E+02	8.714030646E+02	1.098807023E+03	1.000000000E-05	0.000000000E+00	0.000000000E+00

</event>
<event>
	4	1	3.267126300E-02	1.462619000E+03	7.818608000E-03	8.909699000E-02
	-2	-1	0	0	0	501	-0.000000000E+00	0.000000000E+00	6.816400306E+02	6.816400306E+02	5.040000000E-03	0.000000000E+00	1.000000000E+00
	1	-1	0	0	501	0	0.000000000E+00	-0.000000000E+00	-7.845980441E+02	7.845980441E+02	2.550000000E-03	0.000000000E+00	-1.000000000E+00
	-24	1	1	2	0	0	1.410502274E+02	7.139979227E+02	-7.432249075E+00	7.321989941E+02	7.982435975E+01	0.000000000E+00	1.000000000E+00
	9000005	1	1	2	0	0	-1.410502274E+02	-7.139979227E+02	-9.552576443E+01	7.340390807E+02	1.000000000E-05	0.000000000E+00	0.000000000E+00

</event>
<event>
	4	1	3.267126300E-02	1.252380000E+03	7.818608000E-03	9.068204000E-02
	-2	-1	0	0	0	501	-0.000000000E+00	0.000000000E+00	3.275753157E+02	3.275753157E+02	5.040000000E-03	0.000000000E+00	1.000000000E+00
	1	-1	0	0	501	0	0.000000000E+00	-0.000000000E+00	-1.197020023E+03	1.197020023E+03	2.550000000E-03	0.000000000E+00	-1.000000000E+00
	-24	1	1	2	0	0	-3.576313872E+02	5.096257246E+02	-4.806523803E+02	7.905803105E+02	7.982435975E+01	0.000000000E+00	1.000000000E+00
	9000005	1	1	2	0	0	3.576313872E+02	-5.096257246E+02	-3.887923274E+02	7.340150285E+02	1.000000000E-05	0.000000000E+00	0.000000000E+00

</event>
<event>
	4	1	3.267126300E-02	1.589580000E+03	7.818608000E-03	8.826975000E-02
	1	-1	0	0	501	0	0.000000000E+00	0.000000000E+00	1.220588693E+03	1.220588693E+03	5.040000000E-03	0.000000000E+00	-1.000000000E+00
	-2	-1	0	0	0	501	-0.000000000E+00	-0.000000000E+00	-5.175299918E+02	5.175299918E+02	2.550000000E-03	0.000000000E+00	1.000000000E+00
	-24	1	1	2	0	0	2.384776692E+02	6.408626087E+02	-8.623537082E+01	6.938191043E+02	7.982435975E+01	0.000000000E+00	1.000000000E+00
	9000005	1	1	2	0	0	-2.384776692E+02	-6.408626087E+02	7.892940724E+02	1.044299581E+03	1.000000000E-05	0.000000000E+00	0.000000000E+00

</event>
<event>
	4	1	3.267126300E-02	3.475292000E+03	7.818608000E-03	8.119671000E-02
	-2	-1	0	0	0	501	-0.000000000E+00	0.000000000E+00	2.507002874E+03	2.507002874E+03	5.040000000E-03	0.000000000E+00	1.000000000E+00
	1	-1	0	0	501	0	0.000000000E+00	-0.000000000E+00	-1.204391680E+03	1.204391680E+03	2.550000000E-03	0.000000000E+00	-1.000000000E+00
	-24	1	1	2	0	0	-4.242235380E+01	1.550148614E+03	-1.834396114E+02	1.563579995E+03	7.982435975E+01	0.000000000E+00	-1.000000000E+00
	9000005	1	1	2	0	0	4.242235380E+01	-1.550148614E+03	1.486050805E+03	2.147814558E+03	1.000000000E-05	0.000000000E+00	0.000000000E+00

</event>
<event>
	4	1	3.267126300E-02	2.130771000E+03	7.818608000E-03	8.547809000E-02
	-2	-1	0	0	0	501	-0.000000000E+00	0.000000000E+00	3.800392126E+02	3.800392126E+02	5.040000000E-03	0.000000000E+00	1.000000000E+00
	1	-1	0	0	501	0	0.000000000E+00	-0.000000000E+00	-2.986654515E+03	2.986654515E+03	2.550000000E-03	0.000000000E+00	-1.000000000E+00
	-24	1	1	2	0	0	9.100874433E+02	-3.691869068E+02	-6.588577790E+02	1.185336926E+03	7.982435975E+01	0.000000000E+00	1.000000000E+00
	9000005	1	1	2	0	0	-9.100874433E+02	3.691869068E+02	-1.947757523E+03	2.181356802E+03	1.000000000E-05	0.000000000E+00	0.000000000E+00

</event>
<event>
	4	1	3.267126300E-02	1.373996000E+03	7.818608000E-03	8.972860000E-02
	1	-1	0	0	501	0	0.000000000E+00	0.000000000E+00	2.539852727E+03	2.539852727E+03	5.040000000E-03	0.000000000E+00	-1.000000000E+00
	-4	-1	0	0	0	501	-0.000000000E+00	-0.000000000E+00	-1.858219668E+02	1.858263067E+02	1.270000000E+00	0.000000000E+00	1.000000000E+00
	-24	1	1	2	0	0	-5.737216649E+01	-6.218600723E+02	1.737800424E+03	1.848329991E+03	7.982435975E+01	0.000000000E+00	-1.000000000E+00
	9000005	1	1	2	0	0	5.737216649E+01	6.218600723E+02	6.162303367E+02	8.773490428E+02	1.000000000E-05	0.000000000E+00	0.000000000E+00

</event>
<event>
	4	1	3.267126300E-02	1.396664000E+03	7.818608000E-03	8.956237000E-02
	-2	-1	0	0	0	501	-0.000000000E+00	0.000000000E+00	3.402446083E+02	3.402446083E+02	5.040000000E-03	0.000000000E+00	1.000000000E+00
	1	-1	0	0	501	0	0.000000000E+00	-0.000000000E+00	-1.433286099E+03	1.433286099E+03	2.550000000E-03	0.000000000E+00	-1.000000000E+00
	-24	1	1	2	0	0	-4.706469979E+02	-3.735433369E+02	-9.944565274E+02	1.164628239E+03	7.982435975E+01	0.000000000E+00	-1.000000000E+00
	9000005	1	1	2	0	0	4.706469979E+02	3.735433369E+02	-9.858496320E+01	6.089024685E+02	1.000000000E-05	0.000000000E+00	0.000000000E+00

</event>
<event>
	4	1	3.267126300E-02	1.977297000E+03	7.818608000E-03	8.617309000E-02
	1	-1	0	0	501	0	0.000000000E+00	0.000000000E+00	1.215019453E+03	1.215019453E+03	5.040000000E-03	0.000000000E+00	-1.000000000E+00
	-2	-1	0	0	0	501	-0.000000000E+00	-0.000000000E+00	-8.044524943E+02	8.044524943E+02	2.550000000E-03	0.000000000E+00	1.000000000E+00
	-24	1	1	2	0	0	-9.549318306E+02	-2.470243541E+02	2.428122462E+02	1.018943349E+03	7.982435975E+01	0.000000000E+00	-1.000000000E+00
	9000005	1	1	2	0	0	9.549318306E+02	2.470243541E+02	1.677547122E+02	1.000528598E+03	1.000000000E-05	0.000000000E+00	0.000000000E+00

</event>
<event>
	4	1	3.267126300E-02	1.326541000E+03	7.818608000E-03	9.008778000E-02
	1	-1	0	0	501	0	0.000000000E+00	0.000000000E+00	8.233444536E+02	8.233444537E+02	5.040000000E-03	0.000000000E+00	-1.000000000E+00
	-2	-1	0	0	0	501	-0.000000000E+00	-0.000000000E+00	-5.343183501E+02	5.343183501E+02	2.550000000E-03	0.000000000E+00	1.000000000E+00
	-24	1	1	2	0	0	6.447130194E+02	-1.297771329E+02	2.117646459E+02	6.954949139E+02	7.982435975E+01	0.000000000E+00	1.000000000E+00
	9000005	1	1	2	0	0	-6.447130194E+02	1.297771329E+02	7.726145771E+01	6.621678899E+02	1.000000000E-05	0.000000000E+00	0.000000000E+00

</event>
<event>
	4	1	3.267126300E-02	2.125826000E+03	7.818608000E-03	8.549952000E-02
	-2	-1	0	0	0	501	-0.000000000E+00	0.000000000E+00	1.184785941E+03	1.184785941E+03	5.040000000E-03	0.000000000E+00	1.000000000E+00
	1	-1	0	0	501	0	0.000000000E+00	-0.000000000E+00	-9.535761867E+02	9.535761868E+02	2.550000000E-03	0.000000000E+00	-1.000000000E+00
	-24	1	1	2	0	0	9.019356518E+02	4.045267344E+02	-2.731257593E+02	1.028639591E+03	7.982435975E+01	0.000000000E+00	-1.000000000E+00
	9000005	1	1	2	0	0	-9.019356518E+02	-4.045267344E+02	5.043355134E+02	1.109722537E+03	1.000000000E-05	0.000000000E+00	0.000000000E+00

</event>
<event>
	4	1	3.267126300E-02	1.680143000E+03	7.818608000E-03	8.772771000E-02
	-2	-1	0	0	0	501	-0.000000000E+00	0.000000000E+00	4.695094859E+02	4.695094860E+02	5.040000000E-03	0.000000000E+00	1.000000000E+00
	1	-1	0	0	501	0	0.000000000E+00	-0.000000000E+00	-1.503100399E+03	1.503100400E+03	2.550000000E-03	0.000000000E+00	-1.000000000E+00
	-24	1	1	2	0	0	7.337889438E+02	3.154017307E+02	-8.164007244E+02	1.144904597E+03	7.982435975E+01	0.000000000E+00	-1.000000000E+00
	9000005	1	1	2	0	0	-7.337889438E+02	-3.154017307E+02	-2.171901891E+02	8.277052881E+02	1.000000000E-05	0.000000000E+00	0.000000000E+00

</event>
<event>
	4	1	3.267126300E-02	1.844598000E+03	7.818608000E-03	8.682936000E-02
	-2	-1	0	0	0	501	-0.000000000E+00	0.000000000E+00	7.405075293E+02	7.405075293E+02	5.040000000E-03	0.000000000E+00	1.000000000E+00
	1	-1	0	0	501	0	0.000000000E+00	-0.000000000E+00	-1.148719547E+03	1.148719547E+03	2.550000000E-03	0.000000000E+00	-1.000000000E+00
	-24	1	1	2	0	0	3.242087076E+02	7.849184698E+02	-5.683933371E+02	1.025012782E+03	7.982435975E+01	0.000000000E+00	-1.000000000E+00
	9000005	1	1	2	0	0	-3.242087076E+02	-7.849184698E+02	1.601813194E+02	8.642142937E+02	1.000000000E-05	0.000000000E+00	0.000000000E+00

</event>
<event>
	4	1	3.267126300E-02	2.231903000E+03	7.818608000E-03	8.505265000E-02
	1	-1	0	0	501	0	0.000000000E+00	0.000000000E+00	1.280446549E+03	1.280446549E+03	5.040000000E-03	0.000000000E+00	-1.000000000E+00
	-2	-1	0	0	0	501	-0.000000000E+00	-0.000000000E+00	-9.725888190E+02	9.725888190E+02	2.550000000E-03	0.000000000E+00	1.000000000E+00
	-24	1	1	2	0	0	-9.971493179E+02	4.794312313E+02	2.895714316E+02	1.146466140E+03	7.982435975E+01	0.000000000E+00	-1.000000000E+00
	9000005	1	1	2	0	0	9.971493179E+02	-4.794312313E+02	1.828629840E+01	1.106569228E+03	1.000000000E-05	0.000000000E+00	0.000000000E+00

</event>
<event>
	4	1	3.267126300E-02	1.379483000E+03	7.818608000E-03	8.968805000E-02
	-2	-1	0	0	0	501	-0.000000000E+00	0.000000000E+00	6.352067986E+02	6.352067987E+02	5.040000000E-03	0.000000000E+00	1.000000000E+00
	1	-1	0	0	501	0	0.000000000E+00	-0.000000000E+00	-7.489582578E+02	7.489582578E+02	2.550000000E-03	0.000000000E+00	-1.000000000E+00
	-24	1	1	2	0	0	5.825854594E+02	-2.032382793E+02	-3.611643134E+02	7.193908571E+02	7.982435975E+01	0.000000000E+00	-1.000000000E+00
	9000005	1	1	2	0	0	-5.825854594E+02	2.032382793E+02	2.474128543E+02	6.647741993E+02	1.000000000E-05	0.000000000E+00	0.000000000E+00

</event>
<event>
	6	1	3.267126300E-02	2.345881000E+03	7.818608000E-03	8.460047000E-02
	-1	-1	0	0	0	501	-0.000000000E+00	0.000000000E+00	6.193444672E+02	6.193444672E+02	2.550000000E-03	0.000000000E+00	1.000000000E+00
	2	-1	0	0	501	0	0.000000000E+00	-0.000000000E+00	-2.221364486E+03	2.221364486E+03	5.040000000E-03	0.000000000E+00	-1.000000000E+00
	24	2	1	2	0	0	-4.977203726E+02	-9.955625154E+02	-3.592597534E+02	1.172379439E+03	8.084359479E+01	0.000000000E+00	0.000000000E+00
	-11	1	3	3	0	0	-3.931288702E+02	-7.094121221E+02	-2.499987491E+02	8.487138753E+02	5.110000000E-04	0.000000000E+00	1.000000000E+00
	12	1	3	3	0	0	-1.045915024E+02	-2.861503933E+02	-1.092610044E+02	3.236655636E+02	0.000000000E+00	0.000000000E+00	-1.000000000E+00
	9000005	1	1	2	0	0	4.977203726E+02	9.955625154E+02	-1.242760266E+03	1.668329515E+03	1.000000000E-05	0.000000000E+00	0.000000000E+00

</event>
<event>
	4	1	3.267126300E-02	1.691288000E+03	7.818608000E-03	8.766349000E-02
	1	-1	0	0	501	0	0.000000000E+00	0.000000000E+00	2.932845618E+03	2.932845618E+03	5.040000000E-03	0.000000000E+00	-1.000000000E+00
	-2	-1	0	0	0	501	-0.000000000E+00	-0.000000000E+00	-2.438292766E+02	2.438292767E+02	2.550000000E-03	0.000000000E+00	1.000000000E+00
	-24	1	1	2	0	0	-8.297917279E+02	-2.022618565E+01	1.632155648E+03	1.832830434E+03	7.982435975E+01	0.000000000E+00	-1.000000000E+00
	9000005	1	1	2	0	0	8.297917279E+02	2.022618565E+01	1.056860692E+03	1.343844460E+03	1.000000000E-05	0.000000000E+00	0.000000000E+00

</event>
<event>
	4	1	3.267126300E-02	2.733854000E+03	7.818608000E-03	8.324103000E-02
	1	-1	0	0	501	0	0.000000000E+00	0.000000000E+00	2.766037278E+03	2.766037278E+03	5.040000000E-03	0.000000000E+00	-1.000000000E+00
	-2	-1	0	0	0	501	-0.000000000E+00	-0.000000000E+00	-6.755114133E+02	6.755114133E+02	2.550000000E-03	0.000000000E+00	1.000000000E+00
	-24	1	1	2	0	0	1.267184368E+03	5.195789822E+01	4.081583662E+02	1.334698852E+03	7.982435975E+01	0.000000000E+00	1.000000000E+00
	9000005	1	1	2	0	0	-1.267184368E+03	-5.195789822E+01	1.682367498E+03	2.106849839E+03	1.000000000E-05	0.000000000E+00	0.000000000E+00

</event>
<event>
	4	1	3.267126300E-02	1.316659000E+03	7.818608000E-03	9.016458000E-02
	1	-1	0	0	501	0	0.000000000E+00	0.000000000E+00	1.609285917E+03	1.609285917E+03	5.040000000E-03	0.000000000E+00	-1.000000000E+00
	-2	-1	0	0	0	501	-0.000000000E+00	-0.000000000E+00	-2.693105237E+02	2.693105238E+02	2.550000000E-03	0.000000000E+00	1.000000000E+00
	-24	1	1	2	0	0	-2.227114757E+02	-6.105454122E+02	7.988757010E+02	1.032928079E+03	7.982435975E+01	0.000000000E+00	1.000000000E+00
	9000005	1	1	2	0	0	2.227114757E+02	6.105454122E+02	5.410996924E+02	8.456683622E+02	1.000000000E-05	0.000000000E+00	0.000000000E+00

</event>
<event>
	4	1	3.267126300E-02	1.525942000E+03	7.818608000E-03	8.867383000E-02
	1	-1	0	0	501	0	0.000000000E+00	0.000000000E+00	1.730002516E+03	1.730002516E+03	5.040000000E-03	0.000000000E+00	-1.000000000E+00
	-2	-1	0	0	0	501	-0.000000000E+00	-0.000000000E+00	-3.364877250E+02	3.364877250E+02	2.550000000E-03	0.000000000E+00	1.000000000E+00
	-24	1	1	2	0	0	-3.518857542E+02	6.736918173E+02	7.467110768E+02	1.068472559E+03	7.982435975E+01	0.000000000E+00	-1.000000000E+00
	9000005	1	1	2	0	0	3.518857542E+02	-6.736918173E+02	6.468037138E+02	9.980176816E+02	1.000000000E-05	0.000000000E+00	0.000000000E+00

</event>
<event>
	4	1	3.267126300E-02	1.639836000E+03	7.818608000E-03	8.796442000E-02
	-2	-1	0	0	0	501	-0.000000000E+00	0.000000000E+00	1.010695209E+03	1.010695209E+03	5.040000000E-03	0.000000000E+00	1.000000000E+00
	1	-1	0	0	501	0	0.000000000E+00	-0.000000000E+00	-6.651517283E+02	6.651517283E+02	2.550000000E-03	0.000000000E+00	-1.000000000E+00
	-24	1	1	2	0	0	5.423399480E+02	5.647269889E+02	4.150950250E+02	8.897893006E+02	7.982435975E+01	0.000000000E+00	1.000000000E+00
	9000005	1	1	2	0	0	-5.423399480E+02	-5.647269889E+02	-6.955154411E+01	7.860576369E+02	1.000000000E-05	0.000000000E+00	0.000000000E+00

</event>
<event>
	4	1	3.267126300E-02	2.065929000E+03	7.818608000E-03	8.576402000E-02
	1	-1	0	0	501	0	0.000000000E+00	0.000000000E+00	7.162765875E+02	7.162765875E+02	5.040000000E-03	0.000000000E+00	-1.000000000E+00
	-2	-1	0	0	0	501	-0.000000000E+00	-0.000000000E+00	-1.489670016E+03	1.489670016E+03	2.550000000E-03	0.000000000E+00	1.000000000E+00
	-24	1	1	2	0	0	3.455665777E+02	-8.316136664E+02	1.496314755E+02	9.163836842E+02	7.982435975E+01	0.000000000E+00	-1.000000000E+00
	9000005	1	1	2	0	0	-3.455665777E+02	8.316136664E+02	-9.230249042E+02	1.289562920E+03	1.000000000E-05	0.000000000E+00	0.000000000E+00

</event>
<event>
	6	1	3.267126300E-02	1.963862000E+03	7.818608000E-03	8.623705000E-02
	2	-1	0	0	501	0	0.000000000E+00	0.000000000E+00	1.899669225E+03	1.899669225E+03	2.550000000E-03	0.000000000E+00	-1.000000000E+00
	-1	-1	0	0	0	501	-0.000000000E+00	-0.000000000E+00	-5.075561904E+02	5.075561904E+02	5.040000000E-03	0.000000000E+00	1.000000000E+00
	24	2	1	2	0	0	-8.510115208E+02	2.692344063E+01	1.006811743E+02	8.603764474E+02	7.187108040E+01	0.000000000E+00	0.000000000E+00
	-11	1	3	3	0	0	-8.058873241E+02	2.529613782E+01	1.114664010E+02	8.139527211E+02	5.110000000E-04	0.000000000E+00	1.000000000E+00
	12	1	3	3	0	0	-4.512419671E+01	1.627302806E+00	-1.078522673E+01	4.642372625E+01	0.000000000E+00	0.000000000E+00	-1.000000000E+00
	9000005	1	1	2	0	0	8.510115208E+02	-2.692344063E+01	1.291431860E+03	1.546848968E+03	1.000000000E-05	0.000000000E+00	0.000000000E+00

</event>
<event>
	4	1	3.267126300E-02	1.349654000E+03	7.818608000E-03	8.991090000E-02
	1	-1	0	0	501	0	0.000000000E+00	0.000000000E+00	1.237473868E+03	1.237473868E+03	5.040000000E-03	0.000000000E+00	-1.000000000E+00
	-2	-1	0	0	0	501	-0.000000000E+00	-0.000000000E+00	-3.680011064E+02	3.680011064E+02	2.550000000E-03	0.000000000E+00	1.000000000E+00
	-24	1	1	2	0	0	6.032635663E+02	-2.912123859E+02	5.064279466E+02	8.435477329E+02	7.982435975E+01	0.000000000E+00	-1.000000000E+00
	9000005	1	1	2	0	0	-6.032635663E+02	2.912123859E+02	3.630448155E+02	7.619272420E+02	1.000000000E-05	0.000000000E+00	0.000000000E+00

</event>
<event>
	4	1	3.267126300E-02	1.923347000E+03	7.818608000E-03	8.643322000E-02
	-4	-1	0	0	0	501	-0.000000000E+00	0.000000000E+00	2.707981214E+03	2.707981512E+03	1.010000000E-01	0.000000000E+00	1.000000000E+00
	3	-1	0	0	501	0	0.000000000E+00	-0.000000000E+00	-3.415147681E+02	3.415147830E+02	1.270000000E+00	0.000000000E+00	-1.000000000E+00
	-24	1	1	2	0	0	7.999073504E+02	-9.093903941E+01	2.014468772E+03	2.170847309E+03	7.982435975E+01	0.000000000E+00	1.000000000E+00
	9000005	1	1	2	0	0	-7.999073504E+02	9.093903941E+01	3.519976747E+02	8.786489863E+02	1.000000000E-05	0.000000000E+00	0.000000000E+00

</event>
<event>
	4	1	3.267126300E-02	1.676502000E+03	7.818608000E-03	8.774881000E-02
	-2	-1	0	0	0	501	-0.000000000E+00	0.000000000E+00	6.184995658E+02	6.184995658E+02	5.040000000E-03	0.000000000E+00	1.000000000E+00
	1	-1	0	0	501	0	0.000000000E+00	-0.000000000E+00	-1.136078949E+03	1.136078949E+03	2.550000000E-03	0.000000000E+00	-1.000000000E+00
	-24	1	1	2	0	0	-5.679862809E+02	-5.526869575E+02	2.029658194E+01	7.967779916E+02	7.982435975E+01	0.000000000E+00	-1.000000000E+00
	9000005	1	1	2	0	0	5.679862809E+02	5.526869575E+02	-5.378759648E+02	9.578005230E+02	1.000000000E-05	0.000000000E+00	0.000000000E+00

</event>
<event>
	4	1	3.267126300E-02	1.312774000E+03	7.818608000E-03	9.019496000E-02
	1	-1	0	0	501	0	0.000000000E+00	0.000000000E+00	4.328620262E+02	4.328620262E+02	5.040000000E-03	0.000000000E+00	-1.000000000E+00
	-2	-1	0	0	0	501	-0.000000000E+00	-0.000000000E+00	-9.953371194E+02	9.953371194E+02	2.550000000E-03	0.000000000E+00	1.000000000E+00
	-24	1	1	2	0	0	-3.842662157E+02	-5.001050410E+02	-9.416389438E+01	6.426541402E+02	7.982435975E+01	0.000000000E+00	-1.000000000E+00
	9000005	1	1	2	0	0	3.842662157E+02	5.001050410E+02	-4.683111988E+02	7.855450054E+02	1.000000000E-05	0.000000000E+00	0.000000000E+00

</event>
<event>
	4	1	3.267126300E-02	1.518123000E+03	7.818608000E-03	8.872490000E-02
	-2	-1	0	0	0	501	-0.000000000E+00	0.000000000E+00	6.441829490E+02	6.441829490E+02	5.040000000E-03	0.000000000E+00	1.000000000E+00
	1	-1	0	0	501	0	0.000000000E+00	-0.000000000E+00	-8.944271587E+02	8.944271587E+02	2.550000000E-03	0.000000000E+00	-1.000000000E+00
	-24	1	1	2	0	0	9.759039495E+01	7.497920019E+02	-1.617453913E+02	7.773322529E+02	7.982435975E+01	0.000000000E+00	-1.000000000E+00
	9000005	1	1	2	0	0	-9.759039495E+01	-7.497920019E+02	-8.849881837E+01	7.612778548E+02	1.000000000E-05	0.000000000E+00	0.000000000E+00

</event>
<event>
	4	1	3.267126300E-02	1.703357000E+03	7.818608000E-03	8.759452000E-02
	-2	-1	0	0	0	501	-0.000000000E+00	0.000000000E+00	3.891274007E+02	3.891274008E+02	5.040000000E-03	0.000000000E+00	1.000000000E+00
	1	-1	0	0	501	0	0.000000000E+00	-0.000000000E+00	-1.864059317E+03	1.864059317E+03	2.550000000E-03	0.000000000E+00	-1.000000000E+00
	-24	1	1	2	0	0	-1.579927302E+02	-8.229650878E+02	-5.522913814E+02	1.006792400E+03	7.982435975E+01	0.000000000E+00	-1.000000000E+00
	9000005	1	1	2	0	0	1.579927302E+02	8.229650878E+02	-9.226405349E+02	1.246394318E+03	1.000000000E-05	0.000000000E+00	0.000000000E+00

</event>
<event>
	4	1	3.267126300E-02	1.249540000E+03	7.818608000E-03	9.070566000E-02
	1	-1	0	0	501	0	0.000000000E+00	0.000000000E+00	5.126891051E+02	5.126891051E+02	5.040000000E-03	0.000000000E+00	-1.000000000E+00
	-2	-1	0	0	0	501	-0.000000000E+00	-0.000000000E+00	-7.613538285E+02	7.613538285E+02	2.550000000E-03	0.000000000E+00	1.000000000E+00
	-24	1	1	2	0	0	2.433080060E+02	-5.670787699E+02	-2.062888215E+02	6.555182097E+02	7.982435975E+01	0.000000000E+00	1.000000000E+00
	9000005	1	1	2	0	0	-2.433080060E+02	5.670787699E+02	-4.237590181E+01	6.185247239E+02	1.000000000E-05	0.000000000E+00	0.000000000E+00

</event>
<event>
	4	1	3.267126300E-02	1.350245000E+03	7.818608000E-03	8.990642000E-02
	1	-1	0	0	501	0	0.000000000E+00	0.000000000E+00	1.586617433E+03	1.586617433E+03	5.040000000E-03	0.000000000E+00	-1.000000000E+00
	-2	-1	0	0	0	501	-0.000000000E+00	-0.000000000E+00	-2.872719556E+02	2.872719556E+02	2.550000000E-03	0.000000000E+00	1.000000000E+00
	-24	1	1	2	0	0	-5.517120268E+02	3.751992595E+02	7.717274418E+02	1.023276999E+03	7.982435975E+01	0.000000000E+00	-1.000000000E+00
	9000005	1	1	2	0	0	5.517120268E+02	-3.751992595E+02	5.276180351E+02	8.506123887E+02	1.000000000E-05	0.000000000E+00	0.000000000E+00

</event>
<event>
	4	1	3.267126300E-02	2.009687000E+03	7.818608000E-03	8.602105000E-02
	-2	-1	0	0	0	501	-0.000000000E+00	0.000000000E+00	8.698103763E+02	8.698103763E+02	5.040000000E-03	0.000000000E+00	1.000000000E+00
	1	-1	0	0	501	0	0.000000000E+00	-0.000000000E+00	-1.160840303E+03	1.160840303E+03	2.550000000E-03	0.000000000E+00	-1.000000000E+00
	-24	1	1	2	0	0	8.155990107E+02	-1.992756193E+02	4.091789945E+02	9.373963392E+02	7.982435975E+01	0.000000000E+00	1.000000000E+00
	9000005	1	1	2	0	0	-8.155990107E+02	1.992756193E+02	-7.002089206E+02	1.093254340E+03	1.000000000E-05	0.000000000E+00	0.000000000E+00

</event>
<event>
	4	1	3.267126300E-02	1.680603000E+03	7.818608000E-03	8.772505000E-02
	-2	-1	0	0	0	501	-0.000000000E+00	0.000000000E+00	6.557372742E+02	6.557372742E+02	5.040000000E-03	0.000000000E+00	1.000000000E+00
	1	-1	0	0	501	0	0.000000000E+00	-0.000000000E+00	-1.076813039E+03	1.076813039E+03	2.550000000E-03	0.000000000E+00	-1.000000000E+00
	-24	1	1	2	0	0	-6.818699580E+02	-4.048363122E+02	6.958600474E+01	8.000332616E+02	7.982435975E+01	0.000000000E+00	1.000000000E+00
	9000005	1	1	2	0	0	6.818699580E+02	4.048363122E+02	-4.906617695E+02	9.325170515E+02	1.000000000E-05	0.000000000E+00	0.000000000E+00

</event>
<event>
	4	1	3.267126300E-02	1.725567000E+03	7.818608000E-03	8.746915000E-02
	1	-1	0	0	501	0	0.000000000E+00	0.000000000E+00	4.789315908E+03	4.789315908E+03	5.040000000E-03	0.000000000E+00	-1.000000000E+00
	-2	-1	0	0	0	501	-0.000000000E+00	-0.000000000E+00	-1.554283181E+02	1.554283181E+02	2.550000000E-03	0.000000000E+00	1.000000000E+00
	-24	1	1	2	0	0	-3.034620058E+02	5.644901603E+02	3.969233288E+03	4.021432973E+03	7.982435975E+01	0.000000000E+00	-1.000000000E+00
	9000005	1	1	2	0	0	3.034620058E+02	-5.644901603E+02	6.646543023E+02	9.233112539E+02	1.000000000E-05	0.000000000E+00	0.000000000E+00

</event>
<event>
	4	1	3.267126300E-02	1.226271000E+03	7.818608000E-03	9.090167000E-02
	1	-1	0	0	501	0	0.000000000E+00	0.000000000E+00	4.064893461E+02	4.064893461E+02	5.040000000E-03	0.000000000E+00	-1.000000000E+00
	-2	-1	0	0	0	501	-0.000000000E+00	-0.000000000E+00	-9.248338279E+02	9.248338279E+02	2.550000000E-03	0.000000000E+00	1.000000000E+00
	-24	1	1	2	0	0	-5.715941234E+02	-2.100699011E+02	-2.128641823E+02	6.500248409E+02	7.982435975E+01	0.000000000E+00	-1.000000000E+00
	9000005	1	1	2	0	0	5.715941234E+02	2.100699011E+02	-3.054802995E+02	6.812983331E+02	1.000000000E-05	0.000000000E+00	0.000000000E+00

</event>
<event>
	4	1	3.267126300E-02	1.472351000E+03	7.818608000E-03	8.903050000E-02
	-2	-1	0	0	0	501	-0.000000000E+00	0.000000000E+00	3.651586457E+02	3.651586457E+02	5.040000000E-03	0.000000000E+00	1.000000000E+00
	1	-1	0	0	501	0	0.000000000E+00	-0.000000000E+00	-1.484161222E+03	1.484161222E+03	2.550000000E-03	0.000000000E+00	-1.000000000E+00
	-24	1	1	2	0	0	6.733458536E+02	-1.437879966E+02	-2.416507223E+02	7.340549207E+02	7.982435975E+01	0.000000000E+00	1.000000000E+00
	9000005	1	1	2	0	0	-6.733458536E+02	1.437879966E+02	-8.773518544E+02	1.115264947E+03	1.000000000E-05	0.000000000E+00	0.000000000E+00

</event>
<event>
	4	1	3.267126300E-02	1.614709000E+03	7.818608000E-03	8.811563000E-02
	1	-1	0	0	501	0	0.000000000E+00	0.000000000E+00	3.031647238E+03	3.031647238E+03	5.040000000E-03	0.000000000E+00	-1.000000000E+00
	-2	-1	0	0	0	501	-0.000000000E+00	-0.000000000E+00	-2.150055306E+02	2.150055306E+02	2.550000000E-03	0.000000000E+00	1.000000000E+00
	-24	1	1	2	0	0	6.792699042E+02	-1.698917004E+02	6.116051128E+02	9.331149635E+02	7.982435975E+01	0.000000000E+00	1.000000000E+00
	9000005	1	1	2	0	0	-6.792699042E+02	1.698917004E+02	2.205036594E+03	2.313537805E+03	1.000000000E-05	0.000000000E+00	0.000000000E+00

</event>
<event>
	4	1	3.267126300E-02	1.318059000E+03	7.818608000E-03	9.015366000E-02
	1	-1	0	0	501	0	0.000000000E+00	0.000000000E+00	1.363698417E+03	1.363698417E+03	5.040000000E-03	0.000000000E+00	-1.000000000E+00
	-2	-1	0	0	0	501	-0.000000000E+00	-0.000000000E+00	-3.184865870E+02	3.184865870E+02	2.550000000E-03	0.000000000E+00	1.000000000E+00
	-24	1	1	2	0	0	2.189344675E+02	6.086937532E+02	3.807003894E+02	7.548146137E+02	7.982435975E+01	0.000000000E+00	1.000000000E+00
	9000005	1	1	2	0	0	-2.189344675E+02	-6.086937532E+02	6.645114406E+02	9.273703903E+02	1.000000000E-05	0.000000000E+00	0.000000000E+00

</event>
<event>
	4	1	3.267126300E-02	1.797002000E+03	7.818608000E-03	8.707895000E-02
	-2	-1	0	0	0	501	-0.000000000E+00	0.000000000E+00	4.818742522E+02	4.818742522E+02	5.040000000E-03	0.000000000E+00	1.000000000E+00
	1	-1	0	0	501	0	0.000000000E+00	-0.000000000E+00	-1.675341724E+03	1.675341724E+03	2.550000000E-03	0.000000000E+00	-1.000000000E+00
	-24	1	1	2	0	0	-7.697773476E+02	6.657508203E+01	-5.156433125E+01	7.784730021E+02	7.982435975E+01	0.000000000E+00	1.000000000E+00
	9000005	1	1	2	0	0	7.697773476E+02	-6.657508203E+01	-1.141903141E+03	1.378742974E+03	1.000000000E-05	0.000000000E+00	0.000000000E+00

</event>
<event>
	4	1	3.267126300E-02	1.939195000E+03	7.818608000E-03	8.635589000E-02
	-2	-1	0	0	0	501	-0.000000000E+00	0.000000000E+00	3.514783850E+02	3.514783850E+02	5.040000000E-03	0.000000000E+00	1.000000000E+00
	1	-1	0	0	501	0	0.000000000E+00	-0.000000000E+00	-2.674757238E+03	2.674757238E+03	2.550000000E-03	0.000000000E+00	-1.000000000E+00
	-24	1	1	2	0	0	-1.871007126E+01	-9.483480672E+02	-8.625284611E+02	1.284539372E+03	7.982435975E+01	0.000000000E+00	1.000000000E+00
	9000005	1	1	2	0	0	1.871007126E+01	9.483480672E+02	-1.460750392E+03	1.741696251E+03	1.000000000E-05	0.000000000E+00	0.000000000E+00

</event>
<event>
	4	1	3.267126300E-02	1.751059000E+03	7.818608000E-03	8.732767000E-02
	-2	-1	0	0	0	501	-0.000000000E+00	0.000000000E+00	5.624397309E+02	5.624397309E+02	5.040000000E-03	0.000000000E+00	1.000000000E+00
	1	-1	0	0	501	0	0.000000000E+00	-0.000000000E+00	-1.362905310E+03	1.362905310E+03	2.550000000E-03	0.000000000E+00	-1.000000000E+00
	-24	1	1	2	0	0	2.428354880E+02	7.080218630E+02	-8.965928417E+02	1.170689833E+03	7.982435975E+01	0.000000000E+00	-1.000000000E+00
	9000005	1	1	2	0	0	-2.428354880E+02	-7.080218630E+02	9.612726237E+01	7.546552082E+02	1.000000000E-05	0.000000000E+00	0.000000000E+00

</event>
<event>
	6	1	3.267126300E-02	1.896281000E+03	7.818608000E-03	8.656710000E-02
	2	-1	0	0	501	0	0.000000000E+00	0.000000000E+00	2.323874959E+03	2.323874959E+03	2.550000000E-03	0.000000000E+00	-1.000000000E+00
	-1	-1	0	0	0	501	-0.000000000E+00	-0.000000000E+00	-3.868412276E+02	3.868412276E+02	5.040000000E-03	0.000000000E+00	1.000000000E+00
	24	2	1	2	0	0	-5.163569995E+01	7.953683483E+02	1.698917006E+03	1.878864860E+03	9.239649529E+01	0.000000000E+00	0.000000000E+00
	-11	1	3	3	0	0	-6.194159708E+01	7.844630173E+02	1.674955332E+03	1.850592973E+03	5.110000000E-04	0.000000000E+00	1.000000000E+00
	12	1	3	3	0	0	1.030589713E+01	1.090533098E+01	2.396167425E+01	2.827188696E+01	0.000000000E+00	0.000000000E+00	-1.000000000E+00
	9000005	1	1	2	0	0	5.163569995E+01	-7.953683483E+02	2.381167250E+02	8.318513267E+02	1.000000000E-05	0.000000000E+00	0.000000000E+00

</event>
<event>
	4	1	3.267126300E-02	1.956347000E+03	7.818608000E-03	8.627306000E-02
	1	-1	0	0	501	0	0.000000000E+00	0.000000000E+00	2.222472691E+03	2.222472691E+03	5.040000000E-03	0.000000000E+00	-1.000000000E+00
	-2	-1	0	0	0	501	-0.000000000E+00	-0.000000000E+00	-4.305222106E+02	4.305222106E+02	2.550000000E-03	0.000000000E+00	1.000000000E+00
	-24	1	1	2	0	0	7.751257692E+02	-2.257293815E+02	1.523951270E+02	8.254513401E+02	7.982435975E+01	0.000000000E+00	1.000000000E+00
	9000005	1	1	2	0	0	-7.751257692E+02	2.257293815E+02	1.639555353E+03	1.827543561E+03	1.000000000E-05	0.000000000E+00	0.000000000E+00

</event>
<event>
	4	1	3.267126300E-02	2.968794000E+03	7.818608000E-03	8.252698000E-02
	1	-1	0	0	501	0	0.000000000E+00	0.000000000E+00	1.880111997E+03	1.880111997E+03	5.040000000E-03	0.000000000E+00	-1.000000000E+00
	-2	-1	0	0	0	501	-0.000000000E+00	-0.000000000E+00	-1.171969745E+03	1.171969745E+03	2.550000000E-03	0.000000000E+00	1.000000000E+00
	-24	1	1	2	0	0	-5.987305664E+02	-1.098223738E+03	-4.653333402E+02	1.336966984E+03	7.982435975E+01	0.000000000E+00	1.000000000E+00
	9000005	1	1	2	0	0	5.987305664E+02	1.098223738E+03	1.173475592E+03	1.715114759E+03	1.000000000E-05	0.000000000E+00	0.000000000E+00

</event>
<event>
	4	1	3.267126300E-02	1.721624000E+03	7.818608000E-03	8.749127000E-02
	-2	-1	0	0	0	501	-0.000000000E+00	0.000000000E+00	2.027625364E+03	2.027625364E+03	5.040000000E-03	0.000000000E+00	1.000000000E+00
	1	-1	0	0	501	0	0.000000000E+00	-0.000000000E+00	-3.654506245E+02	3.654506245E+02	2.550000000E-03	0.000000000E+00	-1.000000000E+00
	-24	1	1	2	0	0	-2.576313804E+02	-7.199410512E+02	2.889454729E+02	8.213102094E+02	7.982435975E+01	0.000000000E+00	-1.000000000E+00
	9000005	1	1	2	0	0	2.576313804E+02	7.199410512E+02	1.373229266E+03	1.571765779E+03	1.000000000E-05	0.000000000E+00	0.000000000E+00

</event>
<event>
	4	1	3.267126300E-02	1.376775000E+03	7.818608000E-03	8.970803000E-02
	1	-1	0	0	501	0	0.000000000E+00	0.000000000E+00	2.154924114E+03	2.154924114E+03	5.040000000E-03	0.000000000E+00	-1.000000000E+00
	-2	-1	0	0	0	501	-0.000000000E+00	-0.000000000E+00	-2.199045758E+02	2.199045759E+02	2.550000000E-03	0.000000000E+00	1.000000000E+00
	-24	1	1	2	0	0	-4.184588723E+02	5.209209323E+02	7.022577328E+02	9.726275223E+02	7.982435975E+01	0.000000000E+00	-1.000000000E+00
	9000005	1	1	2	0	0	4.184588723E+02	-5.209209323E+02	1.232761806E+03	1.402201168E+03	1.000000000E-05	0.000000000E+00	0.000000000E+00

</event>
<event>
	4	1	3.267126300E-02	1.539952000E+03	7.818608000E-03	8.858312000E-02
	1	-1	0	0	501	0	0.000000000E+00	0.000000000E+00	6.851836394E+02	6.851836394E+02	5.040000000E-03	0.000000000E+00	-1.000000000E+00
	-2	-1	0	0	0	501	-0.000000000E+00	-0.000000000E+00	-8.652613265E+02	8.652613265E+02	2.550000000E-03	0.000000000E+00	1.000000000E+00
	-24	1	1	2	0	0	-2.841568533E+02	6.916745329E+02	8.561640682E+01	7.568757324E+02	7.982435975E+01	0.000000000E+00	-1.000000000E+00
	9000005	1	1	2	0	0	2.841568533E+02	-6.916745329E+02	-2.656940940E+02	7.935692335E+02	1.000000000E-05	0.000000000E+00	0.000000000E+00

</event>
<event>
	4	1	3.267126300E-02	2.421220000E+03	7.818608000E-03	8.431601000E-02
	-2	-1	0	0	0	501	-0.000000000E+00	0.000000000E+00	1.274569977E+03	1.274569977E+03	5.040000000E-03	0.000000000E+00	1.000000000E+00
	1	-1	0	0	501	0	0.000000000E+00	-0.000000000E+00	-1.149859932E+03	1.149859932E+03	2.550000000E-03	0.000000000E+00	-1.000000000E+00
	-24	1	1	2	0	0	7.928346396E+02	-8.920671781E+02	2.576738428E+02	1.223576051E+03	7.982435975E+01	0.000000000E+00	1.000000000E+00
	9000005	1	1	2	0	0	-7.928346396E+02	8.920671781E+02	-1.329637983E+02	1.200853858E+03	1.000000000E-05	0.000000000E+00	0.000000000E+00

</event>
<event>
	4	1	3.267126300E-02	1.431032000E+03	7.818608000E-03	8.931657000E-02
	-2	-1	0	0	0	501	-0.000000000E+00	0.000000000E+00	7.297215168E+02	7.297215168E+02	5.040000000E-03	0.000000000E+00	1.000000000E+00
	1	-1	0	0	501	0	0.000000000E+00	-0.000000000E+00	-7.015874960E+02	7.015874960E+02	2.550000000E-03	0.000000000E+00	-1.000000000E+00
	-24	1	1	2	0	0	-5.504683713E+02	-3.076732644E+02	3.474981854E+02	7.244343881E+02	7.982435975E+01	0.000000000E+00	1.000000000E+00
	9000005	1	1	2	0	0	5.504683713E+02	3.076732644E+02	-3.193641646E+02	7.068746247E+02	1.000000000E-05	0.000000000E+00	0.000000000E+00

</event>
<event>
	4	1	3.267126300E-02	3.492334000E+03	7.818608000E-03	8.115609000E-02
	1	-1	0	0	501	0	0.000000000E+00	0.000000000E+00	1.212200753E+03	1.212200753E+03	5.040000000E-03	0.000000000E+00	-1.000000000E+00
	-2	-1	0	0	0	501	-0.000000000E+00	-0.000000000E+00	-2.515341544E+03	2.515341544E+03	2.550000000E-03	0.000000000E+00	1.000000000E+00
	-24	1	1	2	0	0	5.684099776E+02	1.489183102E+03	1.067021595E+02	1.599535399E+03	7.982435975E+01	0.000000000E+00	-1.000000000E+00
	9000005	1	1	2	0	0	-5.684099776E+02	-1.489183102E+03	-1.409842950E+03	2.128006898E+03	1.000000000E-05	0.000000000E+00	0.000000000E+00

</event>
<event>
	4	1	3.267126300E-02	1.920203000E+03	7.818608000E-03	8.644865000E-02
	1	-1	0	0	501	0	0.000000000E+00	0.000000000E+00	2.818453708E+03	2.818453708E+03	5.040000000E-03	0.000000000E+00	-1.000000000E+00
	-2	-1	0	0	0	501	-0.000000000E+00	-0.000000000E+00	-3.270569166E+02	3.270569166E+02	2.550000000E-03	0.000000000E+00	1.000000000E+00
	-24	1	1	2	0	0	6.291688696E+02	-1.693866038E+01	2.431915215E+03	2.513309357E+03	7.982435975E+01	0.000000000E+00	-1.000000000E+00
	9000005	1	1	2	0	0	-6.291688696E+02	1.693866038E+01	5.948157675E+01	6.322012675E+02	1.000000000E-05	0.000000000E+00	0.000000000E+00

</event>
<event>
	4	1	3.267126300E-02	1.621076000E+03	7.818608000E-03	8.807704000E-02
	1	-1	0	0	501	0	0.000000000E+00	0.000000000E+00	8.980518917E+02	8.980518917E+02	5.040000000E-03	0.000000000E+00	-1.000000000E+00
	-2	-1	0	0	0	501	-0.000000000E+00	-0.000000000E+00	-7.315523546E+02	7.315523546E+02	2.550000000E-03	0.000000000E+00	1.000000000E+00
	-24	1	1	2	0	0	2.346032033E+01	-7.870092215E+02	2.684195329E+02	8.356762982E+02	7.982435975E+01	0.000000000E+00	1.000000000E+00
	9000005	1	1	2	0	0	-2.346032033E+01	7.870092215E+02	-1.019199959E+02	7.939279481E+02	1.000000000E-05	0.000000000E+00	0.000000000E+00

</event>
<event>
	4	1	3.267126300E-02	2.690246000E+03	7.818608000E-03	8.338177000E-02
	1	-1	0	0	501	0	0.000000000E+00	0.000000000E+00	1.055016515E+03	1.055016515E+03	5.040000000E-03	0.000000000E+00	-1.000000000E+00
	-2	-1	0	0	0	501	-0.000000000E+00	-0.000000000E+00	-1.715002426E+03	1.715002426E+03	2.550000000E-03	0.000000000E+00	1.000000000E+00
	-24	1	1	2	0	0	-4.539617460E+02	-1.261978424E+03	-2.411099150E+02	1.364982318E+03	7.982435975E+01	0.000000000E+00	-1.000000000E+00
	9000005	1	1	2	0	0	4.539617460E+02	1.261978424E+03	-4.188759965E+02	1.405036623E+03	1.000000000E-05	0.000000000E+00	0.000000000E+00

</event>
<event>
	4	1	3.267126300E-02	1.545063000E+03	7.818608000E-03	8.855027000E-02
	1	-1	0	0	501	0	0.000000000E+00	0.000000000E+00	3.443609798E+02	3.443609798E+02	5.040000000E-03	0.000000000E+00	-1.000000000E+00
	-2	-1	0	0	0	501	-0.000000000E+00	-0.000000000E+00	-1.733079859E+03	1.733079859E+03	2.550000000E-03	0.000000000E+00	1.000000000E+00
	-24	1	1	2	0	0	-5.418095470E+02	5.342394511E+02	-8.589775620E+02	1.150297247E+03	7.982435975E+01	0.000000000E+00	-1.000000000E+00
	9000005	1	1	2	0	0	5.418095470E+02	-5.342394511E+02	-5.297413170E+02	9.271435914E+02	1.000000000E-05	0.000000000E+00	0.000000000E+00

</event>
<event>
	4	1	3.267126300E-02	1.975710000E+03	7.818608000E-03	8.618062000E-02
	-2	-1	0	0	0	501	-0.000000000E+00	0.000000000E+00	1.508479024E+03	1.508479024E+03	5.040000000E-03	0.000000000E+00	1.000000000E+00
	1	-1	0	0	501	0	0.000000000E+00	-0.000000000E+00	-6.469147210E+02	6.469147210E+02	2.550000000E-03	0.000000000E+00	-1.000000000E+00
	-24	1	1	2	0	0	4.014134054E+02	8.804981486E+02	6.392361012E+02	1.162499219E+03	7.982435975E+01	0.000000000E+00	1.000000000E+00
	9000005	1	1	2	0	0	-4.014134054E+02	-8.804981486E+02	2.223282021E+02	9.928945267E+02	1.000000000E-05	0.000000000E+00	0.000000000E+00

</event>
<event>
	4	1	3.267126300E-02	1.488918000E+03	7.818608000E-03	8.891856000E-02
	-2	-1	0	0	0	501	-0.000000000E+00	0.000000000E+00	5.314778823E+02	5.314778823E+02	5.040000000E-03	0.000000000E+00	1.000000000E+00
	1	-1	0	0	501	0	0.000000000E+00	-0.000000000E+00	-1.042788472E+03	1.042788472E+03	2.550000000E-03	0.000000000E+00	-1.000000000E+00
	-24	1	1	2	0	0	5.385885199E+02	2.995824015E+02	1.811043802E+02	6.473004975E+02	7.982435975E+01	0.000000000E+00	1.000000000E+00
	9000005	1	1	2	0	0	-5.385885199E+02	-2.995824015E+02	-6.924149698E+02	9.269658567E+02	1.000000000E-05	0.000000000E+00	0.000000000E+00

</event>
<event>
	4	1	3.267126300E-02	2.969442000E+03	7.818608000E-03	8.252511000E-02
	1	-1	0	0	501	0	0.000000000E+00	0.000000000E+00	8.884763161E+02	8.884763162E+02	5.040000000E-03	0.000000000E+00	-1.000000000E+00
	-2	-1	0	0	0	501	-0.000000000E+00	-0.000000000E+00	-2.481097323E+03	2.481097323E+03	2.550000000E-03	0.000000000E+00	1.000000000E+00
	-24	1	1	2	0	0	-9.218318491E+02	3.445328085E+02	4.630106934E+02	1.090517145E+03	7.982435975E+01	0.000000000E+00	1.000000000E+00
	9000005	1	1	2	0	0	9.218318491E+02	-3.445328085E+02	-2.055631700E+03	2.279056494E+03	1.000000000E-05	0.000000000E+00	0.000000000E+00

</event>
<event>
	4	1	3.267126300E-02	1.644544000E+03	7.818608000E-03	8.793641000E-02
	-2	-1	0	0	0	501	-0.000000000E+00	0.000000000E+00	4.175815072E+02	4.175815072E+02	5.040000000E-03	0.000000000E+00	1.000000000E+00
	1	-1	0	0	501	0	0.000000000E+00	-0.000000000E+00	-1.619160284E+03	1.619160284E+03	2.550000000E-03	0.000000000E+00	-1.000000000E+00
	-24	1	1	2	0	0	4.617686605E+02	-5.522282428E+02	-1.149863385E+02	7.333349265E+02	7.982435975E+01	0.000000000E+00	1.000000000E+00
	9000005	1	1	2	0	0	-4.617686605E+02	5.522282428E+02	-1.086592438E+03	1.303406865E+03	1.000000000E-05	0.000000000E+00	0.000000000E+00

</event>
<event>
	4	1	3.267126300E-02	2.109127000E+03	7.818608000E-03	8.557234000E-02
	1	-1	0	0	501	0	0.000000000E+00	0.000000000E+00	1.488271900E+03	1.488271900E+03	5.040000000E-03	0.000000000E+00	-1.000000000E+00
	-2	-1	0	0	0	501	-0.000000000E+00	-0.000000000E+00	-7.472449698E+02	7.472449698E+02	2.550000000E-03	0.000000000E+00	1.000000000E+00
	-24	1	1	2	0	0	-4.523933727E+02	-6.076696757E+02	-4.042228434E+02	8.623747642E+02	7.982435975E+01	0.000000000E+00	1.000000000E+00
	9000005	1	1	2	0	0	4.523933727E+02	6.076696757E+02	1.145249774E+03	1.373142106E+03	1.000000000E-05	0.000000000E+00	0.000000000E+00

</event>
<event>
	4	1	3.267126300E-02	3.366944000E+03	7.818608000E-03	8.146067000E-02
	-2	-1	0	0	0	501	-0.000000000E+00	0.000000000E+00	1.160743660E+03	1.160743660E+03	5.040000000E-03	0.000000000E+00	1.000000000E+00
	1	-1	0	0	501	0	0.000000000E+00	-0.000000000E+00	-2.441605666E+03	2.441605666E+03	2.550000000E-03	0.000000000E+00	-1.000000000E+00
	-24	1	1	2	0	0	1.475036284E+03	-7.761826417E+02	-3.951718358E+02	1.714854000E+03	7.982435975E+01	0.000000000E+00	1.000000000E+00
	9000005	1	1	2	0	0	-1.475036284E+03	7.761826417E+02	-8.856901703E+02	1.887495327E+03	1.000000000E-05	0.000000000E+00	0.000000000E+00

</event>
<event>
	4	1	3.267126300E-02	2.751166000E+03	7.818608000E-03	8.318592000E-02
	-2	-1	0	0	0	501	-0.000000000E+00	0.000000000E+00	1.054089170E+03	1.054089170E+03	5.040000000E-03	0.000000000E+00	1.000000000E+00
	1	-1	0	0	501	0	0.000000000E+00	-0.000000000E+00	-1.795131817E+03	1.795131817E+03	2.550000000E-03	0.000000000E+00	-1.000000000E+00
	-24	1	1	2	0	0	-9.237637350E+02	1.627617847E+02	6.695679092E+02	1.155215976E+03	7.982435975E+01	0.000000000E+00	1.000000000E+00
	9000005	1	1	2	0	0	9.237637350E+02	-1.627617847E+02	-1.410610556E+03	1.694005011E+03	1.000000000E-05	0.000000000E+00	0.000000000E+00

</event>
<event>
	6	1	3.267126300E-02	1.454919000E+03	7.818608000E-03	8.914997000E-02
	4	-1	0	0	501	0	0.000000000E+00	0.000000000E+00	5.603502539E+02	5.603516931E+02	1.270000000E+00	0.000000000E+00	-1.000000000E+00
	-3	-1	0	0	0	501	-0.000000000E+00	-0.000000000E+00	-9.444025410E+02	9.444025464E+02	1.010000000E-01	0.000000000E+00	1.000000000E+00
	24	2	1	2	0	0	2.826313492E+02	6.589517635E+02	-8.164941871E+01	7.265862622E+02	8.463487849E+01	0.000000000E+00	0.000000000E+00
	-11	1	3	3	0	0	2.609806813E+02	5.951378687E+02	-4.895618666E+01	6.516875839E+02	5.110000000E-04	0.000000000E+00	1.000000000E+00
	12	1	3	3	0	0	2.165066790E+01	6.381389475E+01	-3.269323205E+01	7.489867826E+01	0.000000000E+00	0.000000000E+00	-1.000000000E+00
	9000005	1	1	2	0	0	-2.826313492E+02	-6.589517635E+02	-3.024028684E+02	7.781679773E+02	1.000000000E-05	0.000000000E+00	0.000000000E+00

</event>
<event>
	4	1	3.267126300E-02	1.495004000E+03	7.818608000E-03	8.887782000E-02
	1	-1	0	0	501	0	0.000000000E+00	0.000000000E+00	4.547911493E+02	4.547911494E+02	5.040000000E-03	0.000000000E+00	-1.000000000E+00
	-2	-1	0	0	0	501	-0.000000000E+00	-0.000000000E+00	-1.228606069E+03	1.228606069E+03	2.550000000E-03	0.000000000E+00	1.000000000E+00
	-24	1	1	2	0	0	-2.827551526E+02	-6.892561006E+02	-4.144968842E+02	8.562733466E+02	7.982435975E+01	0.000000000E+00	-1.000000000E+00
	9000005	1	1	2	0	0	2.827551526E+02	6.892561006E+02	-3.593180353E+02	8.271238717E+02	1.000000000E-05	0.000000000E+00	0.000000000E+00

</event>
<event>
	4	1	3.267126300E-02	1.802956000E+03	7.818608000E-03	8.704729000E-02
	1	-1	0	0	501	0	0.000000000E+00	0.000000000E+00	2.540764295E+03	2.540764295E+03	5.040000000E-03	0.000000000E+00	-1.000000000E+00
	-2	-1	0	0	0	501	-0.000000000E+00	-0.000000000E+00	-3.198497826E+02	3.198497826E+02	2.550000000E-03	0.000000000E+00	1.000000000E+00
	-24	1	1	2	0	0	6.507880167E+02	-4.029190736E+02	3.623582844E+02	8.506140589E+02	7.982435975E+01	0.000000000E+00	1.000000000E+00
	9000005	1	1	2	0	0	-6.507880167E+02	4.029190736E+02	1.858556228E+03	2.010000019E+03	1.000000000E-05	0.000000000E+00	0.000000000E+00

</event>
<event>
	4	1	3.267126300E-02	1.955672000E+03	7.818608000E-03	8.627631000E-02
	-2	-1	0	0	0	501	-0.000000000E+00	0.000000000E+00	2.877687284E+02	2.877687284E+02	5.040000000E-03	0.000000000E+00	1.000000000E+00
	1	-1	0	0	501	0	0.000000000E+00	-0.000000000E+00	-3.322678946E+03	3.322678946E+03	2.550000000E-03	0.000000000E+00	-1.000000000E+00
	-24	1	1	2	0	0	-7.057912305E+02	6.232641860E+02	-1.044336384E+03	1.408406872E+03	7.982435975E+01	0.000000000E+00	1.000000000E+00
	9000005	1	1	2	0	0	7.057912305E+02	-6.232641860E+02	-1.990573834E+03	2.202040802E+03	1.000000000E-05	0.000000000E+00	0.000000000E+00

</event>
<event>
	4	1	3.267126300E-02	2.000145000E+03	7.818608000E-03	8.606553000E-02
	1	-1	0	0	501	0	0.000000000E+00	0.000000000E+00	1.893741459E+03	1.893741459E+03	5.040000000E-03	0.000000000E+00	-1.000000000E+00
	-2	-1	0	0	0	501	-0.000000000E+00	-0.000000000E+00	-5.281315707E+02	5.281315707E+02	2.550000000E-03	0.000000000E+00	1.000000000E+00
	-24	1	1	2	0	0	8.870571185E+02	-3.832029598E+01	1.308347297E+02	9.010152227E+02	7.982435975E+01	0.000000000E+00	-1.000000000E+00
	9000005	1	1	2	0	0	-8.870571185E+02	3.832029598E+01	1.234775159E+03	1.520857807E+03	1.000000000E-05	0.000000000E+00	0.000000000E+00

</event>
<event>
	4	1	3.267126300E-02	1.493327000E+03	7.818608000E-03	8.888902000E-02
	1	-1	0	0	501	0	0.000000000E+00	0.000000000E+00	2.222019307E+03	2.222019307E+03	5.040000000E-03	0.000000000E+00	-1.000000000E+00
	-2	-1	0	0	0	501	-0.000000000E+00	-0.000000000E+00	-2.509009234E+02	2.509009234E+02	2.550000000E-03	0.000000000E+00	1.000000000E+00
	-24	1	1	2	0	0	3.102381438E+02	-6.189813522E+02	1.441701584E+03	1.601331011E+03	7.982435975E+01	0.000000000E+00	-1.000000000E+00
	9000005	1	1	2	0	0	-3.102381438E+02	6.189813522E+02	5.294167994E+02	8.715892196E+02	1.000000000E-05	0.000000000E+00	0.000000000E+00

</event>
<event>
	4	1	3.267126300E-02	1.428210000E+03	7.818608000E-03	8.933648000E-02
	-2	-1	0	0	0	501	-0.000000000E+00	0.000000000E+00	1.779077332E+02	1.779077333E+02	5.040000000E-03	0.000000000E+00	1.000000000E+00
	1	-1	0	0	501	0	0.000000000E+00	-0.000000000E+00	-2.866352156E+03	2.866352156E+03	2.550000000E-03	0.000000000E+00	-1.000000000E+00
	-24	1	1	2	0	0	-3.638003328E+02	6.088288946E+02	-1.478809106E+03	1.642032766E+03	7.982435975E+01	0.000000000E+00	1.000000000E+00
	9000005	1	1	2	0	0	3.638003328E+02	-6.088288946E+02	-1.209635317E+03	1.402227124E+03	1.000000000E-05	0.000000000E+00	0.000000000E+00

</event>
<event>
	4	1	3.267126300E-02	1.268358000E+03	7.818608000E-03	9.055041000E-02
	1	-1	0	0	501	0	0.000000000E+00	0.000000000E+00	1.493002482E+03	1.493002482E+03	5.040000000E-03	0.000000000E+00	-1.000000000E+00
	-2	-1	0	0	0	501	-0.000000000E+00	-0.000000000E+00	-2.693785444E+02	2.693785444E+02	2.550000000E-03	0.000000000E+00	1.000000000E+00
	-24	1	1	2	0	0	4.754252277E+02	4.150806916E+02	6.505236038E+02	9.098758240E+02	7.982435975E+01	0.000000000E+00	1.000000000E+00
	9000005	1	1	2	0	0	-4.754252277E+02	-4.150806916E+02	5.731003342E+02	8.525052027E+02	1.000000000E-05	0.000000000E+00	0.000000000E+00

</event>
<event>
	4	1	3.267126300E-02	2.469180000E+03	7.818608000E-03	8.414048000E-02
	3	-1	0	0	501	0	0.000000000E+00	0.000000000E+00	8.208385845E+02	8.208385907E+02	1.010000000E-01	0.000000000E+00	-1.000000000E+00
	-4	-1	0	0	0	501	-0.000000000E+00	-0.000000000E+00	-1.856896324E+03	1.856896758E+03	1.270000000E+00	0.000000000E+00	1.000000000E+00
	-24	1	1	2	0	0	-5.209001910E+02	-9.782850442E+02	6.809311044E+01	1.113277700E+03	7.982435975E+01	0.000000000E+00	-1.000000000E+00
	9000005	1	1	2	0	0	5.209001910E+02	9.782850442E+02	-1.104150850E+03	1.564457649E+03	1.000000000E-05	0.000000000E+00	0.000000000E+00

</event>
<event>
	4	1	3.267126300E-02	1.359051000E+03	7.818608000E-03	8.984005000E-02
	-2	-1	0	0	0	501	-0.000000000E+00	0.000000000E+00	2.792602666E+02	2.792602667E+02	5.040000000E-03	0.000000000E+00	1.000000000E+00
	1	-1	0	0	501	0	0.000000000E+00	-0.000000000E+00	-1.653493241E+03	1.653493241E+03	2.550000000E-03	0.000000000E+00	-1.000000000E+00
	-24	1	1	2	0	0	-2.074303124E+02	6.352598178E+02	-8.452228347E+02	1.080442474E+03	7.982435975E+01	0.000000000E+00	-1.000000000E+00
	9000005	1	1	2	0	0	2.074303124E+02	-6.352598178E+02	-5.290101399E+02	8.523110340E+02	1.000000000E-05	0.000000000E+00	0.000000000E+00

</event>
<event>
	4	1	3.267126300E-02	1.504635000E+03	7.818608000E-03	8.881376000E-02
	-2	-1	0	0	0	501	-0.000000000E+00	0.000000000E+00	2.042969900E+02	2.042969900E+02	5.040000000E-03	0.000000000E+00	1.000000000E+00
	1	-1	0	0	501	0	0.000000000E+00	-0.000000000E+00	-2.770387144E+03	2.770387144E+03	2.550000000E-03	0.000000000E+00	-1.000000000E+00
	-24	1	1	2	0	0	-4.785107900E+02	-5.254291687E+02	-8.115478400E+02	1.081679348E+03	7.982435975E+01	0.000000000E+00	1.000000000E+00
	9000005	1	1	2	0	0	4.785107900E+02	5.254291687E+02	-1.754542314E+03	1.893004786E+03	1.000000000E-05	0.000000000E+00	0.000000000E+00

</event>
<event>
	4	1	3.267126300E-02	2.066031000E+03	7.818608000E-03	8.576356000E-02
	1	-1	0	0	501	0	0.000000000E+00	0.000000000E+00	2.381559125E+03	2.381559125E+03	5.040000000E-03	0.000000000E+00	-1.000000000E+00
	-4	-1	0	0	0	501	-0.000000000E+00	-0.000000000E+00	-4.480754936E+02	4.480772934E+02	1.270000000E+00	0.000000000E+00	1.000000000E+00
	-24	1	1	2	0	0	-3.141409719E+02	-5.447417168E+02	-1.516332459E+02	6.517611970E+02	7.982435975E+01	0.000000000E+00	1.000000000E+00
	9000005	1	1	2	0	0	3.141409719E+02	5.447417168E+02	2.085116877E+03	2.177875221E+03	1.000000000E-05	0.000000000E+00	0.000000000E+00

</event>
<event>
	4	1	3.267126300E-02	1.530908000E+03	7.818608000E-03	8.864156000E-02
	1	-1	0	0	501	0	0.000000000E+00	0.000000000E+00	3.945822731E+03	3.945822731E+03	5.040000000E-03	0.000000000E+00	-1.000000000E+00
	-2	-1	0	0	0	501	-0.000000000E+00	-0.000000000E+00	-1.484911097E+02	1.484911097E+02	2.550000000E-03	0.000000000E+00	1.000000000E+00
	-24	1	1	2	0	0	-7.071593519E+01	-7.106086688E+02	2.625293880E+03	2.721856959E+03	7.982435975E+01	0.000000000E+00	1.000000000E+00
	9000005	1	1	2	0	0	7.071593519E+01	7.106086688E+02	1.172037742E+03	1.372456882E+03	1.000000000E-05	0.000000000E+00	0.000000000E+00

</event>
<event>
	4	1	3.267126300E-02	1.301162000E+03	7.818608000E-03	9.028644000E-02
	-2	-1	0	0	0	501	-0.000000000E+00	0.000000000E+00	2.531709042E+02	2.531709042E+02	5.040000000E-03	0.000000000E+00	1.000000000E+00
	1	-1	0	0	501	0	0.000000000E+00	-0.000000000E+00	-1.671817598E+03	1.671817598E+03	2.550000000E-03	0.000000000E+00	-1.000000000E+00
	-24	1	1	2	0	0	-5.948650148E+02	9.503899956E+01	-1.065757564E+03	1.226828395E+03	7.982435975E+01	0.000000000E+00	-1.000000000E+00
	9000005	1	1	2	0	0	5.948650148E+02	-9.503899956E+01	-3.528891299E+02	6.981601072E+02	1.000000000E-05	0.000000000E+00	0.000000000E+00

</event>
<event>
	4	1	3.267126300E-02	1.436512000E+03	7.818608000E-03	8.927805000E-02
	-2	-1	0	0	0	501	-0.000000000E+00	0.000000000E+00	2.418204949E+03	2.418204949E+03	5.040000000E-03	0.000000000E+00	1.000000000E+00
	1	-1	0	0	501	0	0.000000000E+00	-0.000000000E+00	-2.133365650E+02	2.133365651E+02	2.550000000E-03	0.000000000E+00	-1.000000000E+00
	-24	1	1	2	0	0	-6.296736227E+02	1.609172028E+02	5.552709277E+02	8.585341861E+02	7.982435975E+01	0.000000000E+00	-1.000000000E+00
	9000005	1	1	2	0	0	6.296736227E+02	-1.609172028E+02	1.649597456E+03	1.773007328E+03	1.000000000E-05	0.000000000E+00	0.000000000E+00

</event>
<event>
	4	1	3.267126300E-02	1.248387000E+03	7.818608000E-03	9.071527000E-02
	-2	-1	0	0	0	501	-0.000000000E+00	0.000000000E+00	3.962779348E+02	3.962779348E+02	5.040000000E-03	0.000000000E+00	1.000000000E+00
	1	-1	0	0	501	0	0.000000000E+00	-0.000000000E+00	-9.831917989E+02	9.831917989E+02	2.550000000E-03	0.000000000E+00	-1.000000000E+00
	-24	1	1	2	0	0	-5.273416294E+02	-3.207026975E+02	-2.127198971E+02	6.576937717E+02	7.982435975E+01	0.000000000E+00	-1.000000000E+00
	9000005	1	1	2	0	0	5.273416294E+02	3.207026975E+02	-3.741939671E+02	7.217759620E+02	1.000000000E-05	0.000000000E+00	0.000000000E+00

</event>
<event>
	4	1	3.267126300E-02	1.332079000E+03	7.818608000E-03	9.004506000E-02
	1	-1	0	0	501	0	0.000000000E+00	0.000000000E+00	1.412000121E+02	1.412000122E+02	5.040000000E-03	0.000000000E+00	-1.000000000E+00
	-2	-1	0	0	0	501	-0.000000000E+00	-0.000000000E+00	-3.141706118E+03	3.141706118E+03	2.550000000E-03	0.000000000E+00	1.000000000E+00
	-24	1	1	2	0	0	3.650030832E+02	-5.373863697E+02	-1.171182286E+03	1.341659881E+03	7.982435975E+01	0.000000000E+00	1.000000000E+00
	9000005	1	1	2	0	0	-3.650030832E+02	5.373863697E+02	-1.829323820E+03	1.941246249E+03	1.000000000E-05	0.000000000E+00	0.000000000E+00

</event>
<event>
	4	1	3.267126300E-02	1.598605000E+03	7.818608000E-03	8.821406000E-02
	1	-1	0	0	501	0	0.000000000E+00	0.000000000E+00	1.298601510E+03	1.298601510E+03	5.040000000E-03	0.000000000E+00	-1.000000000E+00
	-2	-1	0	0	0	501	-0.000000000E+00	-0.000000000E+00	-4.919787490E+02	4.919787490E+02	2.550000000E-03	0.000000000E+00	1.000000000E+00
	-24	1	1	2	0	0	5.256523688E+02	5.829160112E+02	2.475010181E+02	8.268797805E+02	7.982435975E+01	0.000000000E+00	1.000000000E+00
	9000005	1	1	2	0	0	-5.256523688E+02	-5.829160112E+02	5.591217429E+02	9.637004786E+02	1.000000000E-05	0.000000000E+00	0.000000000E+00

</event>
<event>
	6	1	3.267126300E-02	1.868706000E+03	7.818608000E-03	8.670592000E-02
	-1	-1	0	0	0	501	-0.000000000E+00	0.000000000E+00	2.197537351E+02	2.197537352E+02	2.550000000E-03	0.000000000E+00	1.000000000E+00
	2	-1	0	0	501	0	0.000000000E+00	-0.000000000E+00	-3.972698972E+03	3.972698972E+03	5.040000000E-03	0.000000000E+00	-1.000000000E+00
	24	2	1	2	0	0	-2.902962153E+02	8.771979934E+02	-2.163005452E+03	2.353524559E+03	8.207956666E+01	0.000000000E+00	0.000000000E+00
	-11	1	3	3	0	0	-2.208829029E+02	6.408546171E+02	-1.672439928E+03	1.804588377E+03	5.110000000E-04	0.000000000E+00	1.000000000E+00
	12	1	3	3	0	0	-6.941331243E+01	2.363433763E+02	-4.905655237E+02	5.489361825E+02	0.000000000E+00	0.000000000E+00	-1.000000000E+00
	9000005	1	1	2	0	0	2.902962153E+02	-8.771979934E+02	-1.589939785E+03	1.838928148E+03	1.000000000E-05	0.000000000E+00	0.000000000E+00

</event>
<event>
	4	1	3.267126300E-02	1.567551000E+03	7.818608000E-03	8.840734000E-02
	1	-1	0	0	501	0	0.000000000E+00	0.000000000E+00	2.759903591E+03	2.759903591E+03	5.040000000E-03	0.000000000E+00	-1.000000000E+00
	-2	-1	0	0	0	501	-0.000000000E+00	-0.000000000E+00	-2.225816782E+02	2.225816782E+02	2.550000000E-03	0.000000000E+00	1.000000000E+00
	-24	1	1	2	0	0	-6.606881348E+02	3.504536565E+02	8.389357969E+02	1.126726132E+03	7.982435975E+01	0.000000000E+00	1.000000000E+00
	9000005	1	1	2	0	0	6.606881348E+02	-3.504536565E+02	1.698386115E+03	1.855759137E+03	1.000000000E-05	0.000000000E+00	0.000000000E+00

</event>
<event>
	4	1	3.267126300E-02	1.609063000E+03	7.818608000E-03	8.814999000E-02
	1	-1	0	0	501	0	0.000000000E+00	0.000000000E+00	2.054390886E+03	2.054390886E+03	5.040000000E-03	0.000000000E+00	-1.000000000E+00
	-2	-1	0	0	0	501	-0.000000000E+00	-0.000000000E+00	-3.150671088E+02	3.150671088E+02	2.550000000E-03	0.000000000E+00	1.000000000E+00
	-24	1	1	2	0	0	6.128576359E+02	-1.663897525E+02	1.491784416E+02	6.571956843E+02	7.982435975E+01	0.000000000E+00	1.000000000E+00
	9000005	1	1	2	0	0	-6.128576359E+02	1.663897525E+02	1.590145336E+03	1.712262311E+03	1.000000000E-05	0.000000000E+00	0.000000000E+00

</event>
<event>
	4	1	3.267126300E-02	1.446952000E+03	7.818608000E-03	8.920517000E-02
	1	-1	0	0	501	0	0.000000000E+00	0.000000000E+00	1.234347314E+03	1.234347314E+03	5.040000000E-03	0.000000000E+00	-1.000000000E+00
	-2	-1	0	0	0	501	-0.000000000E+00	-0.000000000E+00	-4.240437999E+02	4.240437999E+02	2.550000000E-03	0.000000000E+00	1.000000000E+00
	-24	1	1	2	0	0	-4.001717158E+02	-5.773999818E+02	2.190777416E+02	7.401993829E+02	7.982435975E+01	0.000000000E+00	1.000000000E+00
	9000005	1	1	2	0	0	4.001717158E+02	5.773999818E+02	5.912257729E+02	9.181917315E+02	1.000000000E-05	0.000000000E+00	0.000000000E+00

</event>
<event>
	4	1	3.267126300E-02	1.880608000E+03	7.818608000E-03	8.664570000E-02
	1	-1	0	0	501	0	0.000000000E+00	0.000000000E+00	1.949520529E+03	1.949520529E+03	5.040000000E-03	0.000000000E+00	-1.000000000E+00
	-2	-1	0	0	0	501	-0.000000000E+00	-0.000000000E+00	-4.535326422E+02	4.535326422E+02	2.550000000E-03	0.000000000E+00	1.000000000E+00
	-24	1	1	2	0	0	6.212954385E+02	-6.970403114E+02	6.273469276E+02	1.127745234E+03	7.982435975E+01	0.000000000E+00	1.000000000E+00
	9000005	1	1	2	0	0	-6.212954385E+02	6.970403114E+02	8.686409591E+02	1.275307937E+03	1.000000000E-05	0.000000000E+00	0.000000000E+00

</event>
<event>
	6	1	3.267126300E-02	2.172487000E+03	7.818608000E-03	8.529968000E-02
	-1	-1	0	0	0	501	-0.000000000E+00	0.000000000E+00	1.817369519E+03	1.817369519E+03	2.550000000E-03	0.000000000E+00	1.000000000E+00
	2	-1	0	0	501	0	0.000000000E+00	-0.000000000E+00	-6.492488807E+02	6.492488807E+02	5.040000000E-03	0.000000000E+00	-1.000000000E+00
	24	2	1	2	0	0	6.838937361E+02	-4.512999448E+02	1.391993482E+03	1.617206054E+03	7.954422782E+01	0.000000000E+00	0.000000000E+00
	-11	1	3	3	0	0	6.166539724E+02	-4.195718709E+02	1.221573415E+03	1.431273658E+03	5.110000000E-04	0.000000000E+00	1.000000000E+00
	12	1	3	3	0	0	6.723976369E+01	-3.172807399E+01	1.704200672E+02	1.859323958E+02	0.000000000E+00	0.000000000E+00	-1.000000000E+00
	9000005	1	1	2	0	0	-6.838937361E+02	4.512999448E+02	-2.238728441E+02	8.494123455E+02	1.000000000E-05	0.000000000E+00	0.000000000E+00

</event>
<event>
	4	1	3.267126300E-02	1.415051000E+03	7.818608000E-03	8.942995000E-02
	1	-1	0	0	501	0	0.000000000E+00	0.000000000E+00	7.109124964E+02	7.109124964E+02	5.040000000E-03	0.000000000E+00	-1.000000000E+00
	-2	-1	0	0	0	501	-0.000000000E+00	-0.000000000E+00	-7.041544892E+02	7.041544892E+02	2.550000000E-03	0.000000000E+00	1.000000000E+00
	-24	1	1	2	0	0	4.243241836E+02	4.503994972E+02	-3.349934917E+02	7.081689684E+02	7.982435975E+01	0.000000000E+00	1.000000000E+00
	9000005	1	1	2	0	0	-4.243241836E+02	-4.503994972E+02	3.417514989E+02	7.068980173E+02	1.000000000E-05	0.000000000E+00	0.000000000E+00

</event>
<event>
	4	1	3.267126300E-02	2.167156000E+03	7.818608000E-03	8.532224000E-02
	1	-1	0	0	501	0	0.000000000E+00	0.000000000E+00	3.012438895E+03	3.012438895E+03	5.040000000E-03	0.000000000E+00	-1.000000000E+00
	-2	-1	0	0	0	501	-0.000000000E+00	-0.000000000E+00	-3.897642686E+02	3.897642686E+02	2.550000000E-03	0.000000000E+00	1.000000000E+00
	-24	1	1	2	0	0	-3.815015615E+02	-9.443419567E+02	7.392306620E+02	1.261015096E+03	7.982435975E+01	0.000000000E+00	1.000000000E+00
	9000005	1	1	2	0	0	3.815015615E+02	9.443419567E+02	1.883443964E+03	2.141188067E+03	1.000000000E-05	0.000000000E+00	0.000000000E+00

</event>
<event>
	4	1	3.267126300E-02	1.538405000E+03	7.818608000E-03	8.859308000E-02
	-2	-1	0	0	0	501	-0.000000000E+00	0.000000000E+00	1.457973285E+02	1.457973285E+02	5.040000000E-03	0.000000000E+00	1.000000000E+00
	1	-1	0	0	501	0	0.000000000E+00	-0.000000000E+00	-4.058183127E+03	4.058183127E+03	2.550000000E-03	0.000000000E+00	-1.000000000E+00
	-24	1	1	2	0	0	-3.467539187E+02	-6.357738667E+02	-1.269901087E+03	1.464058534E+03	7.982435975E+01	0.000000000E+00	1.000000000E+00
	9000005	1	1	2	0	0	3.467539187E+02	6.357738667E+02	-2.642484711E+03	2.739921922E+03	1.000000000E-05	0.000000000E+00	0.000000000E+00

</event>
<event>
	4	1	3.267126300E-02	1.267951000E+03	7.818608000E-03	9.055374000E-02
	-2	-1	0	0	0	501	-0.000000000E+00	0.000000000E+00	1.735099568E+02	1.735099568E+02	5.040000000E-03	0.000000000E+00	1.000000000E+00
	1	-1	0	0	501	0	0.000000000E+00	-0.000000000E+00	-2.316435679E+03	2.316435679E+03	2.550000000E-03	0.000000000E+00	-1.000000000E+00
	-24	1	1	2	0	0	-5.195770169E+02	-3.153725841E+02	-7.394260075E+02	9.604909642E+02	7.982435975E+01	0.000000000E+00	-1.000000000E+00
	9000005	1	1	2	0	0	5.195770169E+02	3.153725841E+02	-1.403499715E+03	1.529454672E+03	1.000000000E-05	0.000000000E+00	0.000000000E+00

</event>
<event>
	4	1	3.267126300E-02	1.468424000E+03	7.818608000E-03	8.905726000E-02
	1	-1	0	0	501	0	0.000000000E+00	0.000000000E+00	1.244101885E+03	1.244101885E+03	5.040000000E-03	0.000000000E+00	-1.000000000E+00
	-2	-1	0	0	0	501	-0.000000000E+00	-0.000000000E+00	-4.332983402E+02	4.332983402E+02	2.550000000E-03	0.000000000E+00	1.000000000E+00
	-24	1	1	2	0	0	-7.256254160E+02	-8.818679932E+01	3.612387162E+02	8.192523997E+02	7.982435975E+01	0.000000000E+00	1.000000000E+00
	9000005	1	1	2	0	0	7.256254160E+02	8.818679932E+01	4.495648290E+02	8.581478260E+02	1.000000000E-05	0.000000000E+00	0.000000000E+00

</event>
<event>
	4	1	3.267126300E-02	2.433393000E+03	7.818608000E-03	8.427106000E-02
	1	-1	0	0	501	0	0.000000000E+00	0.000000000E+00	8.804106759E+02	8.804106759E+02	5.040000000E-03	0.000000000E+00	-1.000000000E+00
	-2	-1	0	0	0	501	-0.000000000E+00	-0.000000000E+00	-1.681431741E+03	1.681431741E+03	2.550000000E-03	0.000000000E+00	1.000000000E+00
	-24	1	1	2	0	0	7.494427911E+02	8.027553330E+02	1.472008335E+02	1.110909823E+03	7.982435975E+01	0.000000000E+00	1.000000000E+00
	9000005	1	1	2	0	0	-7.494427911E+02	-8.027553330E+02	-9.482218985E+02	1.450932593E+03	1.000000000E-05	0.000000000E+00	0.000000000E+00

</event>
<event>
	4	1	3.267126300E-02	1.529579000E+03	7.818608000E-03	8.865018000E-02
	-2	-1	0	0	0	501	-0.000000000E+00	0.000000000E+00	2.159289058E+02	2.159289058E+02	5.040000000E-03	0.000000000E+00	1.000000000E+00
	1	-1	0	0	501	0	0.000000000E+00	-0.000000000E+00	-2.708776791E+03	2.708776791E+03	2.550000000E-03	0.000000000E+00	-1.000000000E+00
	-24	1	1	2	0	0	7.109414582E+02	1.906208025E+02	-1.631987321E+03	1.792073825E+03	7.982435975E+01	0.000000000E+00	-1.000000000E+00
	9000005	1	1	2	0	0	-7.109414582E+02	-1.906208025E+02	-8.608605636E+02	1.132631872E+03	1.000000000E-05	0.000000000E+00	0.000000000E+00

</event>
<event>
	4	1	3.267126300E-02	1.765239000E+03	7.818608000E-03	8.725007000E-02
	1	-1	0	0	501	0	0.000000000E+00	0.000000000E+00	1.598852905E+03	1.598852905E+03	5.040000000E-03	0.000000000E+00	-1.000000000E+00
	-2	-1	0	0	0	501	-0.000000000E+00	-0.000000000E+00	-4.872350012E+02	4.872350012E+02	2.550000000E-03	0.000000000E+00	1.000000000E+00
	-24	1	1	2	0	0	-1.603334602E+02	8.426649570E+02	7.934254256E+02	1.171190370E+03	7.982435975E+01	0.000000000E+00	-1.000000000E+00
	9000005	1	1	2	0	0	1.603334602E+02	-8.426649570E+02	3.181924776E+02	9.148975358E+02	1.000000000E-05	0.000000000E+00	0.000000000E+00

</event>
<event>
	4	1	3.267126300E-02	1.327677000E+03	7.818608000E-03	9.007900000E-02
	1	-1	0	0	501	0	0.000000000E+00	0.000000000E+00	6.443812363E+02	6.443812363E+02	5.040000000E-03	0.000000000E+00	-1.000000000E+00
	-2	-1	0	0	0	501	-0.000000000E+00	-0.000000000E+00	-6.838832551E+02	6.838832552E+02	2.550000000E-03	0.000000000E+00	1.000000000E+00
	-24	1	1	2	0	0	-2.806915520E+02	5.932041629E+02	6.281199815E+01	6.640754489E+02	7.982435975E+01	0.000000000E+00	-1.000000000E+00
	9000005	1	1	2	0	0	2.806915520E+02	-5.932041629E+02	-1.023140170E+02	6.641890426E+02	1.000000000E-05	0.000000000E+00	0.000000000E+00

</event>
<event>
	4	1	3.267126300E-02	1.867275000E+03	7.818608000E-03	8.671319000E-02
	1	-1	0	0	501	0	0.000000000E+00	0.000000000E+00	1.914824699E+03	1.914824699E+03	5.040000000E-03	0.000000000E+00	-1.000000000E+00
	-2	-1	0	0	0	501	-0.000000000E+00	-0.000000000E+00	-4.552264676E+02	4.552264676E+02	2.550000000E-03	0.000000000E+00	1.000000000E+00
	-24	1	1	2	0	0	2.494631117E+02	-5.630239142E+02	1.618948667E+03	1.733953427E+03	7.982435975E+01	0.000000000E+00	-1.000000000E+00
	9000005	1	1	2	0	0	-2.494631117E+02	5.630239142E+02	-1.593504361E+02	6.360977390E+02	1.000000000E-05	0.000000000E+00	0.000000000E+00

</event>
<event>
	4	1	3.267126300E-02	1.378254000E+03	7.818608000E-03	8.969712000E-02
	-2	-1	0	0	0	501	-0.000000000E+00	0.000000000E+00	4.062128704E+02	4.062128704E+02	5.040000000E-03	0.000000000E+00	1.000000000E+00
	1	-1	0	0	501	0	0.000000000E+00	-0.000000000E+00	-1.169080934E+03	1.169080934E+03	2.550000000E-03	0.000000000E+00	-1.000000000E+00
	-24	1	1	2	0	0	3.100389042E+02	-5.953407995E+02	-5.489756872E+02	8.708048135E+02	7.982435975E+01	0.000000000E+00	-1.000000000E+00
	9000005	1	1	2	0	0	-3.100389042E+02	5.953407995E+02	-2.138923765E+02	7.044889910E+02	1.000000000E-05	0.000000000E+00	0.000000000E+00

</event>
<event>
	4	1	3.267126300E-02	1.315553000E+03	7.818608000E-03	9.017322000E-02
	-2	-1	0	0	0	501	-0.000000000E+00	0.000000000E+00	1.940743118E+03	1.940743118E+03	5.040000000E-03	0.000000000E+00	1.000000000E+00
	1	-1	0	0	501	0	0.000000000E+00	-0.000000000E+00	-2.229401804E+02	2.229401805E+02	2.550000000E-03	0.000000000E+00	-1.000000000E+00
	-24	1	1	2	0	0	6.524960314E+02	6.022184325E+01	8.446749912E+02	1.072019361E+03	7.982435975E+01	0.000000000E+00	-1.000000000E+00
	9000005	1	1	2	0	0	-6.524960314E+02	-6.022184325E+01	8.731279465E+02	1.091663937E+03	1.000000000E-05	0.000000000E+00	0.000000000E+00

</event>
<event>
	4	1	3.267126300E-02	2.968752000E+03	7.818608000E-03	8.252711000E-02
	-2	-1	0	0	0	501	-0.000000000E+00	0.000000000E+00	8.210572679E+02	8.210572680E+02	5.040000000E-03	0.000000000E+00	1.000000000E+00
	1	-1	0	0	501	0	0.000000000E+00	-0.000000000E+00	-2.683579477E+03	2.683579477E+03	2.550000000E-03	0.000000000E+00	-1.000000000E+00
	-24	1	1	2	0	0	-1.227767767E+03	6.294114686E+02	-1.574867376E+03	2.095268876E+03	7.982435975E+01	0.000000000E+00	-1.000000000E+00
	9000005	1	1	2	0	0	1.227767767E+03	-6.294114686E+02	-2.876548332E+02	1.409367868E+03	1.000000000E-05	0.000000000E+00	0.000000000E+00

</event>
<event>
	4	1	3.267126300E-02	1.981312000E+03	7.818608000E-03	8.615408000E-02
	-2	-1	0	0	0	501	-0.000000000E+00	0.000000000E+00	2.439433516E+02	2.439433517E+02	5.040000000E-03	0.000000000E+00	1.000000000E+00
	1	-1	0	0	501	0	0.000000000E+00	-0.000000000E+00	-4.023061091E+03	4.023061091E+03	2.550000000E-03	0.000000000E+00	-1.000000000E+00
	-24	1	1	2	0	0	-3.243801249E+02	-6.378013455E+02	-3.363100939E+03	3.439307035E+03	7.982435975E+01	0.000000000E+00	-1.000000000E+00
	9000005	1	1	2	0	0	3.243801249E+02	6.378013455E+02	-4.160168005E+02	8.276974085E+02	1.000000000E-05	0.000000000E+00	0.000000000E+00

</event>
<event>
	4	1	3.267126300E-02	1.325769000E+03	7.818608000E-03	9.009376000E-02
	-2	-1	0	0	0	501	-0.000000000E+00	0.000000000E+00	4.511587356E+02	4.511587357E+02	5.040000000E-03	0.000000000E+00	1.000000000E+00
	1	-1	0	0	501	0	0.000000000E+00	-0.000000000E+00	-9.739719703E+02	9.739719703E+02	2.550000000E-03	0.000000000E+00	-1.000000000E+00
	-24	1	1	2	0	0	6.165209087E+02	1.555870842E+02	-7.027125389E+01	6.446823630E+02	7.982435975E+01	0.000000000E+00	1.000000000E+00
	9000005	1	1	2	0	0	-6.165209087E+02	-1.555870842E+02	-4.525419808E+02	7.804483430E+02	1.000000000E-05	0.000000000E+00	0.000000000E+00

</event>
<event>
	4	1	3.267126300E-02	1.378866000E+03	7.818608000E-03	8.969260000E-02
	-2	-1	0	0	0	501	-0.000000000E+00	0.000000000E+00	2.799296009E+02	2.799296009E+02	5.040000000E-03	0.000000000E+00	1.000000000E+00
	1	-1	0	0	501	0	0.000000000E+00	-0.000000000E+00	-1.697990928E+03	1.697990928E+03	2.550000000E-03	0.000000000E+00	-1.000000000E+00
	-24	1	1	2	0	0	2.149307058E+02	6.407778010E+02	-8.891050638E+02	1.119674569E+03	7.982435975E+01	0.000000000E+00	-1.000000000E+00
	9000005	1	1	2	0	0	-2.149307058E+02	-6.407778010E+02	-5.289562635E+02	8.582459596E+02	1.000000000E-05	0.000000000E+00	0.000000000E+00

</event>
<event>
	4	1	3.267126300E-02	1.668265000E+03	7.818608000E-03	8.779674000E-02
	1	-1	0	0	501	0	0.000000000E+00	0.000000000E+00	1.072573711E+03	1.072573711E+03	5.040000000E-03	0.000000000E+00	-1.000000000E+00
	-2	-1	0	0	0	501	-0.000000000E+00	-0.000000000E+00	-6.486984881E+02	6.486984881E+02	2.550000000E-03	0.000000000E+00	1.000000000E+00
	-24	1	1	2	0	0	4.251276337E+02	5.983467242E+02	-1.922671382E+02	7.629488110E+02	7.982435975E+01	0.000000000E+00	1.000000000E+00
	9000005	1	1	2	0	0	-4.251276337E+02	-5.983467242E+02	6.161423616E+02	9.583233886E+02	1.000000000E-05	0.000000000E+00	0.000000000E+00

</event>
<event>
	4	1	3.267126300E-02	1.234289000E+03	7.818608000E-03	9.083362000E-02
	1	-1	0	0	501	0	0.000000000E+00	0.000000000E+00	5.067970084E+02	5.067970085E+02	5.040000000E-03	0.000000000E+00	-1.000000000E+00
	-2	-1	0	0	0	501	-0.000000000E+00	-0.000000000E+00	-7.515179584E+02	7.515179584E+02	2.550000000E-03	0.000000000E+00	1.000000000E+00
	-24	1	1	2	0	0	5.978167807E+02	-1.417156389E+02	-1.379770720E+02	6.347265761E+02	7.982435975E+01	0.000000000E+00	1.000000000E+00
	9000005	1	1	2	0	0	-5.978167807E+02	1.417156389E+02	-1.067438780E+02	6.235883908E+02	1.000000000E-05	0.000000000E+00	0.000000000E+00

</event>
<event>
	4	1	3.267126300E-02	1.470547000E+03	7.818608000E-03	8.904279000E-02
	1	-1	0	0	501	0	0.000000000E+00	0.000000000E+00	1.312099907E+03	1.312099907E+03	5.040000000E-03	0.000000000E+00	-1.000000000E+00
	-2	-1	0	0	0	501	-0.000000000E+00	-0.000000000E+00	-4.120319683E+02	4.120319683E+02	2.550000000E-03	0.000000000E+00	1.000000000E+00
	-24	1	1	2	0	0	-4.451026255E+02	-4.908802674E+02	8.190774303E+02	1.056569709E+03	7.982435975E+01	0.000000000E+00	-1.000000000E+00
	9000005	1	1	2	0	0	4.451026255E+02	4.908802674E+02	8.099050868E+01	6.675621669E+02	1.000000000E-05	0.000000000E+00	0.000000000E+00

</event>
<event>
	4	1	3.267126300E-02	2.229225000E+03	7.818608000E-03	8.506362000E-02
	-2	-1	0	0	0	501	-0.000000000E+00	0.000000000E+00	7.472577618E+02	7.472577618E+02	5.040000000E-03	0.000000000E+00	1.000000000E+00
	1	-1	0	0	501	0	0.000000000E+00	-0.000000000E+00	-1.662560404E+03	1.662560404E+03	2.550000000E-03	0.000000000E+00	-1.000000000E+00
	-24	1	1	2	0	0	-7.219102602E+02	-4.649477231E+02	-1.224038845E+03	1.497322220E+03	7.982435975E+01	0.000000000E+00	-1.000000000E+00
	9000005	1	1	2	0	0	7.219102602E+02	4.649477231E+02	3.087362021E+02	9.124959460E+02	1.000000000E-05	0.000000000E+00	0.000000000E+00

</event>
<event>
	4	1	3.267126300E-02	1.338663000E+03	7.818608000E-03	8.999454000E-02
	-4	-1	0	0	0	501	-0.000000000E+00	0.000000000E+00	2.319756337E+03	2.319756685E+03	1.010000000E-01	0.000000000E+00	1.000000000E+00
	3	-1	0	0	501	0	0.000000000E+00	-0.000000000E+00	-1.931256708E+02	1.931256972E+02	1.270000000E+00	0.000000000E+00	-1.000000000E+00
	-24	1	1	2	0	0	-8.399131410E+01	6.083986246E+02	5.789585231E+02	8.478020566E+02	7.982435975E+01	0.000000000E+00	-1.000000000E+00
	9000005	1	1	2	0	0	8.399131410E+01	-6.083986246E+02	1.547672143E+03	1.665080326E+03	1.000000000E-05	0.000000000E+00	0.000000000E+00

</event>
<event>
	4	1	3.267126300E-02	2.184035000E+03	7.818608000E-03	8.525103000E-02
	-2	-1	0	0	0	501	-0.000000000E+00	0.000000000E+00	6.071768159E+02	6.071768159E+02	5.040000000E-03	0.000000000E+00	1.000000000E+00
	1	-1	0	0	501	0	0.000000000E+00	-0.000000000E+00	-1.964010612E+03	1.964010612E+03	2.550000000E-03	0.000000000E+00	-1.000000000E+00
	-24	1	1	2	0	0	7.517406264E+02	4.727206713E+02	6.593216019E+01	8.940345522E+02	7.982435975E+01	0.000000000E+00	1.000000000E+00
	9000005	1	1	2	0	0	-7.517406264E+02	-4.727206713E+02	-1.422765957E+03	1.677152876E+03	1.000000000E-05	0.000000000E+00	0.000000000E+00

</event>
<event>
	4	1	3.267126300E-02	2.455963000E+03	7.818608000E-03	8.418844000E-02
	1	-1	0	0	501	0	0.000000000E+00	0.000000000E+00	1.690912698E+03	1.690912698E+03	5.040000000E-03	0.000000000E+00	-1.000000000E+00
	-2	-1	0	0	0	501	-0.000000000E+00	-0.000000000E+00	-8.917900795E+02	8.917900795E+02	2.550000000E-03	0.000000000E+00	1.000000000E+00
	-24	1	1	2	0	0	4.411689853E+02	1.048325296E+03	8.831942105E+02	1.442227424E+03	7.982435975E+01	0.000000000E+00	-1.000000000E+00
	9000005	1	1	2	0	0	-4.411689853E+02	-1.048325296E+03	-8.407159205E+01	1.140475354E+03	1.000000000E-05	0.000000000E+00	0.000000000E+00

</event>
<event>
	4	1	3.267126300E-02	2.257973000E+03	7.818608000E-03	8.494678000E-02
	-2	-1	0	0	0	501	-0.000000000E+00	0.000000000E+00	1.829688452E+03	1.829688452E+03	5.040000000E-03	0.000000000E+00	1.000000000E+00
	1	-1	0	0	501	0	0.000000000E+00	-0.000000000E+00	-6.966271740E+02	6.966271740E+02	2.550000000E-03	0.000000000E+00	-1.000000000E+00
	-24	1	1	2	0	0	-5.088849486E+02	9.845393644E+02	3.348395848E+02	1.160504686E+03	7.982435975E+01	0.000000000E+00	1.000000000E+00
	9000005	1	1	2	0	0	5.088849486E+02	-9.845393644E+02	7.982216928E+02	1.365810939E+03	1.000000000E-05	0.000000000E+00	0.000000000E+00

</event>
<event>
	4	1	3.267126300E-02	2.370721000E+03	7.818608000E-03	8.450547000E-02
	-2	-1	0	0	0	501	-0.000000000E+00	0.000000000E+00	6.951948348E+02	6.951948348E+02	5.040000000E-03	0.000000000E+00	1.000000000E+00
	1	-1	0	0	501	0	0.000000000E+00	-0.000000000E+00	-2.021131158E+03	2.021131158E+03	2.550000000E-03	0.000000000E+00	-1.000000000E+00
	-24	1	1	2	0	0	1.125589353E+03	-3.952447702E+01	-1.082176296E+03	1.563966445E+03	7.982435975E+01	0.000000000E+00	1.000000000E+00
	9000005	1	1	2	0	0	-1.125589353E+03	3.952447702E+01	-2.437600274E+02	1.152359548E+03	1.000000000E-05	0.000000000E+00	0.000000000E+00

</event>
<event>
	4	1	3.267126300E-02	2.050046000E+03	7.818608000E-03	8.583573000E-02
	-2	-1	0	0	0	501	-0.000000000E+00	0.000000000E+00	5.609685201E+02	5.609685201E+02	5.040000000E-03	0.000000000E+00	1.000000000E+00
	1	-1	0	0	501	0	0.000000000E+00	-0.000000000E+00	-1.872960932E+03	1.872960932E+03	2.550000000E-03	0.000000000E+00	-1.000000000E+00
	-24	1	1	2	0	0	-1.773718206E+02	9.511271770E+02	-1.053230103E+03	1.432399821E+03	7.982435975E+01	0.000000000E+00	-1.000000000E+00
	9000005	1	1	2	0	0	1.773718206E+02	-9.511271770E+02	-2.587623090E+02	1.001529631E+03	1.000000000E-05	0.000000000E+00	0.000000000E+00

</event>
<event>
	4	1	3.267126300E-02	1.368324000E+03	7.818608000E-03	8.977072000E-02
	1	-1	0	0	501	0	0.000000000E+00	0.000000000E+00	6.550271739E+02	6.550271739E+02	5.040000000E-03	0.000000000E+00	-1.000000000E+00
	-2	-1	0	0	0	501	-0.000000000E+00	-0.000000000E+00	-7.145922023E+02	7.145922023E+02	2.550000000E-03	0.000000000E+00	1.000000000E+00
	-24	1	1	2	0	0	-6.585746235E+02	-4.893745752E+01	-1.996952333E+02	6.945253948E+02	7.982435975E+01	0.000000000E+00	1.000000000E+00
	9000005	1	1	2	0	0	6.585746235E+02	4.893745752E+01	1.401302049E+02	6.750939814E+02	1.000000000E-05	0.000000000E+00	0.000000000E+00

</event>
<event>
	4	1	3.267126300E-02	1.461088000E+03	7.818608000E-03	8.910749000E-02
	1	-1	0	0	501	0	0.000000000E+00	0.000000000E+00	9.759626069E+02	9.759626069E+02	5.040000000E-03	0.000000000E+00	-1.000000000E+00
	-2	-1	0	0	0	501	-0.000000000E+00	-0.000000000E+00	-5.468392213E+02	5.468392213E+02	2.550000000E-03	0.000000000E+00	1.000000000E+00
	-24	1	1	2	0	0	1.250464440E+02	6.552077810E+02	5.200983368E+02	8.495928776E+02	7.982435975E+01	0.000000000E+00	-1.000000000E+00
	9000005	1	1	2	0	0	-1.250464440E+02	-6.552077810E+02	-9.097495115E+01	6.732089506E+02	1.000000000E-05	0.000000000E+00	0.000000000E+00

</event>
<event>
	4	1	3.267126300E-02	1.324455000E+03	7.818608000E-03	9.010394000E-02
	-2	-1	0	0	0	501	-0.000000000E+00	0.000000000E+00	6.088524527E+02	6.088524527E+02	5.040000000E-03	0.000000000E+00	1.000000000E+00
	1	-1	0	0	501	0	0.000000000E+00	-0.000000000E+00	-7.202813442E+02	7.202813442E+02	2.550000000E-03	0.000000000E+00	-1.000000000E+00
	-24	1	1	2	0	0	3.670246260E+02	5.442036546E+02	1.140363821E+01	6.613370284E+02	7.982435975E+01	0.000000000E+00	1.000000000E+00
	9000005	1	1	2	0	0	-3.670246260E+02	-5.442036546E+02	-1.228325296E+02	6.677967685E+02	1.000000000E-05	0.000000000E+00	0.000000000E+00

</event>
<event>
	4	1	3.267126300E-02	1.383987000E+03	7.818608000E-03	8.965492000E-02
	1	-1	0	0	501	0	0.000000000E+00	0.000000000E+00	5.562184187E+02	5.562184187E+02	5.040000000E-03	0.000000000E+00	-1.000000000E+00
	-2	-1	0	0	0	501	-0.000000000E+00	-0.000000000E+00	-8.609119266E+02	8.609119266E+02	2.550000000E-03	0.000000000E+00	1.000000000E+00
	-24	1	1	2	0	0	6.478503553E+02	2.359772178E+02	-1.699591659E+02	7.146001516E+02	7.982435975E+01	0.000000000E+00	1.000000000E+00
	9000005	1	1	2	0	0	-6.478503553E+02	-2.359772178E+02	-1.347343420E+02	7.025301937E+02	1.000000000E-05	0.000000000E+00	0.000000000E+00

</event>
<event>
	4	1	3.267126300E-02	1.298596000E+03	7.818608000E-03	9.030679000E-02
	1	-1	0	0	501	0	0.000000000E+00	0.000000000E+00	1.350142264E+03	1.350142264E+03	5.040000000E-03	0.000000000E+00	-1.000000000E+00
	-2	-1	0	0	0	501	-0.000000000E+00	-0.000000000E+00	-3.122543276E+02	3.122543276E+02	2.550000000E-03	0.000000000E+00	1.000000000E+00
	-24	1	1	2	0	0	5.007165774E+02	-3.647087612E+02	7.592954651E+02	9.831739944E+02	7.982435975E+01	0.000000000E+00	1.000000000E+00
	9000005	1	1	2	0	0	-5.007165774E+02	3.647087612E+02	2.785924708E+02	6.792225969E+02	1.000000000E-05	0.000000000E+00	0.000000000E+00

</event>
<event>
	4	1	3.267126300E-02	1.576654000E+03	7.818608000E-03	8.835020000E-02
	-2	-1	0	0	0	501	-0.000000000E+00	0.000000000E+00	3.630103615E+02	3.630103615E+02	5.040000000E-03	0.000000000E+00	1.000000000E+00
	1	-1	0	0	501	0	0.000000000E+00	-0.000000000E+00	-1.711960618E+03	1.711960618E+03	2.550000000E-03	0.000000000E+00	-1.000000000E+00
	-24	1	1	2	0	0	1.289005442E+02	-6.092482277E+02	-1.308020756E+03	1.450892477E+03	7.982435975E+01	0.000000000E+00	-1.000000000E+00
	9000005	1	1	2	0	0	-1.289005442E+02	6.092482277E+02	-4.092950055E+01	6.240785025E+02	1.000000000E-05	0.000000000E+00	0.000000000E+00

</event>
<event>
	4	1	3.267126300E-02	1.253886000E+03	7.818608000E-03	9.066955000E-02
	-2	-1	0	0	0	501	-0.000000000E+00	0.000000000E+00	2.811110350E+02	2.811110350E+02	5.040000000E-03	0.000000000E+00	1.000000000E+00
	1	-1	0	0	501	0	0.000000000E+00	-0.000000000E+00	-1.398228521E+03	1.398228521E+03	2.550000000E-03	0.000000000E+00	-1.000000000E+00
	-24	1	1	2	0	0	-1.353734392E+02	-6.034240900E+02	-6.762779570E+02	9.198752111E+02	7.982435975E+01	0.000000000E+00	1.000000000E+00
	9000005	1	1	2	0	0	1.353734392E+02	6.034240900E+02	-4.408395285E+02	7.594643444E+02	1.000000000E-05	0.000000000E+00	0.000000000E+00

</event>
<event>
	4	1	3.267126300E-02	2.099125000E+03	7.818608000E-03	8.561629000E-02
	1	-1	0	0	501	0	0.000000000E+00	0.000000000E+00	1.412223698E+03	1.412223698E+03	5.040000000E-03	0.000000000E+00	-1.000000000E+00
	-2	-1	0	0	0	501	-0.000000000E+00	-0.000000000E+00	-7.800331135E+02	7.800331135E+02	2.550000000E-03	0.000000000E+00	1.000000000E+00
	-24	1	1	2	0	0	-8.704841460E+02	-5.390241137E+02	5.503319107E+02	1.165129514E+03	7.982435975E+01	0.000000000E+00	-1.000000000E+00
	9000005	1	1	2	0	0	8.704841460E+02	5.390241137E+02	8.185867402E+01	1.027127298E+03	1.000000000E-05	0.000000000E+00	0.000000000E+00

</event>
<event>
	4	1	3.267126300E-02	2.495809000E+03	7.818608000E-03	8.404480000E-02
	1	-1	0	0	501	0	0.000000000E+00	0.000000000E+00	2.307187087E+03	2.307187087E+03	5.040000000E-03	0.000000000E+00	-1.000000000E+00
	-2	-1	0	0	0	501	-0.000000000E+00	-0.000000000E+00	-6.749628823E+02	6.749628823E+02	2.550000000E-03	0.000000000E+00	1.000000000E+00
	-24	1	1	2	0	0	9.957768318E+02	3.388551124E+02	1.616422852E+03	1.930178502E+03	7.982435975E+01	0.000000000E+00	1.000000000E+00
	9000005	1	1	2	0	0	-9.957768318E+02	-3.388551124E+02	1.580135331E+01	1.051971468E+03	1.000000000E-05	0.000000000E+00	0.000000000E+00

</event>
<event>
	4	1	3.267126300E-02	2.939943000E+03	7.818608000E-03	8.261092000E-02
	-2	-1	0	0	0	501	-0.000000000E+00	0.000000000E+00	1.783524668E+03	1.783524668E+03	5.040000000E-03	0.000000000E+00	1.000000000E+00
	1	-1	0	0	501	0	0.000000000E+00	-0.000000000E+00	-1.211542377E+03	1.211542377E+03	2.550000000E-03	0.000000000E+00	-1.000000000E+00
	-24	1	1	2	0	0	-8.058731815E+02	-1.124553766E+03	7.889922565E+02	1.594657790E+03	7.982435975E+01	0.000000000E+00	1.000000000E+00
	9000005	1	1	2	0	0	8.058731815E+02	1.124553766E+03	-2.170099662E+02	1.400409255E+03	1.000000000E-05	0.000000000E+00	0.000000000E+00

</event>
<event>
	4	1	3.267126300E-02	1.447323000E+03	7.818608000E-03	8.920258000E-02
	-2	-1	0	0	0	501	-0.000000000E+00	0.000000000E+00	1.766123890E+03	1.766123890E+03	5.040000000E-03	0.000000000E+00	1.000000000E+00
	1	-1	0	0	501	0	0.000000000E+00	-0.000000000E+00	-2.965172126E+02	2.965172127E+02	2.550000000E-03	0.000000000E+00	-1.000000000E+00
	-24	1	1	2	0	0	-7.061069316E+02	-1.452221760E+02	6.960168131E+02	1.005230228E+03	7.982435975E+01	0.000000000E+00	1.000000000E+00
	9000005	1	1	2	0	0	7.061069316E+02	1.452221760E+02	7.735898642E+02	1.057410874E+03	1.000000000E-05	0.000000000E+00	0.000000000E+00

</event>
<event>
	4	1	3.267126300E-02	3.206718000E+03	7.818608000E-03	8.187045000E-02
	1	-1	0	0	501	0	0.000000000E+00	0.000000000E+00	2.465035733E+03	2.465035733E+03	5.040000000E-03	0.000000000E+00	-1.000000000E+00
	-2	-1	0	0	0	501	-0.000000000E+00	-0.000000000E+00	-1.042889626E+03	1.042889626E+03	2.550000000E-03	0.000000000E+00	1.000000000E+00
	-24	1	1	2	0	0	-1.315971646E+03	-8.363187377E+02	1.115475869E+03	1.918819623E+03	7.982435975E+01	0.000000000E+00	-1.000000000E+00
	9000005	1	1	2	0	0	1.315971646E+03	8.363187377E+02	3.066702384E+02	1.589105736E+03	1.000000000E-05	0.000000000E+00	0.000000000E+00

</event>
<event>
	4	1	3.267126300E-02	2.845632000E+03	7.818608000E-03	8.289240000E-02
	1	-1	0	0	501	0	0.000000000E+00	0.000000000E+00	1.778674122E+03	1.778674122E+03	5.040000000E-03	0.000000000E+00	-1.000000000E+00
	-2	-1	0	0	0	501	-0.000000000E+00	-0.000000000E+00	-1.138153812E+03	1.138153812E+03	2.550000000E-03	0.000000000E+00	1.000000000E+00
	-24	1	1	2	0	0	7.995873298E+02	-1.029216236E+03	9.026962487E+02	1.587406187E+03	7.982435975E+01	0.000000000E+00	1.000000000E+00
	9000005	1	1	2	0	0	-7.995873298E+02	1.029216236E+03	-2.621759390E+02	1.329421747E+03	1.000000000E-05	0.000000000E+00	0.000000000E+00

</event>
<event>
	4	1	3.267126300E-02	1.896934000E+03	7.818608000E-03	8.656384000E-02
	-2	-1	0	0	0	501	-0.000000000E+00	0.000000000E+00	6.630030219E+02	6.630030219E+02	5.040000000E-03	0.000000000E+00	1.000000000E+00
	1	-1	0	0	501	0	0.000000000E+00	-0.000000000E+00	-1.356840391E+03	1.356840391E+03	2.550000000E-03	0.000000000E+00	-1.000000000E+00
	-24	1	1	2	0	0	-3.753420184E+02	6.439194003E+02	2.741574143E+02	7.981528933E+02	7.982435975E+01	0.000000000E+00	1.000000000E+00
	9000005	1	1	2	0	0	3.753420184E+02	-6.439194003E+02	-9.679947831E+02	1.221690519E+03	1.000000000E-05	0.000000000E+00	0.000000000E+00

</event>
<event>
	4	1	3.267126300E-02	1.392717000E+03	7.818608000E-03	8.959107000E-02
	-2	-1	0	0	0	501	-0.000000000E+00	0.000000000E+00	1.546812994E+03	1.546812994E+03	5.040000000E-03	0.000000000E+00	1.000000000E+00
	1	-1	0	0	501	0	0.000000000E+00	-0.000000000E+00	-3.134932749E+02	3.134932749E+02	2.550000000E-03	0.000000000E+00	-1.000000000E+00
	-24	1	1	2	0	0	6.373136707E+02	4.249328833E+01	9.814569184E+02	1.173713766E+03	7.982435975E+01	0.000000000E+00	1.000000000E+00
	9000005	1	1	2	0	0	-6.373136707E+02	-4.249328833E+01	2.518628011E+02	6.865925028E+02	1.000000000E-05	0.000000000E+00	0.000000000E+00

</event>
<event>
	4	1	3.267126300E-02	1.259819000E+03	7.818608000E-03	9.062050000E-02
	-2	-1	0	0	0	501	-0.000000000E+00	0.000000000E+00	2.177912038E+02	2.177912038E+02	5.040000000E-03	0.000000000E+00	1.000000000E+00
	1	-1	0	0	501	0	0.000000000E+00	-0.000000000E+00	-1.821863625E+03	1.821863625E+03	2.550000000E-03	0.000000000E+00	-1.000000000E+00
	-24	1	1	2	0	0	6.106032760E+02	-4.576383804E+01	-1.026507554E+03	1.197923360E+03	7.982435975E+01	0.000000000E+00	-1.000000000E+00
	9000005	1	1	2	0	0	-6.106032760E+02	4.576383804E+01	-5.775648667E+02	8.417314683E+02	1.000000000E-05	0.000000000E+00	0.000000000E+00

</event>
<event>
	6	1	3.267126300E-02	1.318463000E+03	7.818608000E-03	9.015050000E-02
	2	-1	0	0	501	0	0.000000000E+00	0.000000000E+00	9.955720917E+02	9.955720917E+02	2.550000000E-03	0.000000000E+00	-1.000000000E+00
	-1	-1	0	0	0	501	-0.000000000E+00	-0.000000000E+00	-4.365193522E+02	4.365193522E+02	5.040000000E-03	0.000000000E+00	1.000000000E+00
	24	2	1	2	0	0	-3.638823863E+02	5.431909265E+02	2.124696400E+02	6.921004854E+02	7.995598963E+01	0.000000000E+00	0.000000000E+00
	-11	1	3	3	0	0	-3.170860317E+02	5.126112088E+02	1.928094713E+02	6.328422356E+02	5.110000000E-04	0.000000000E+00	1.000000000E+00
	12	1	3	3	0	0	-4.679635466E+01	3.057971770E+01	1.966016874E+01	5.925824988E+01	0.000000000E+00	0.000000000E+00	-1.000000000E+00
	9000005	1	1	2	0	0	3.638823863E+02	-5.431909265E+02	3.465830995E+02	7.399909584E+02	1.000000000E-05	0.000000000E+00	0.000000000E+00

</event>
<event>
	6	1	3.267126300E-02	1.379933000E+03	7.818608000E-03	8.968474000E-02
	-1	-1	0	0	0	501	-0.000000000E+00	0.000000000E+00	2.452770289E+02	2.452770290E+02	2.550000000E-03	0.000000000E+00	1.000000000E+00
	2	-1	0	0	501	0	0.000000000E+00	-0.000000000E+00	-1.940880937E+03	1.940880937E+03	5.040000000E-03	0.000000000E+00	-1.000000000E+00
	24	2	1	2	0	0	-6.441781106E+02	-2.397098894E+02	-8.146798317E+02	1.068815808E+03	7.897932853E+01	0.000000000E+00	0.000000000E+00
	-11	1	3	3	0	0	-6.417460156E+02	-2.308756520E+02	-8.086138183E+02	1.057826934E+03	5.110000000E-04	0.000000000E+00	1.000000000E+00
	12	1	3	3	0	0	-2.432095022E+00	-8.834237393E+00	-6.066013479E+00	1.098887419E+01	0.000000000E+00	0.000000000E+00	-1.000000000E+00
	9000005	1	1	2	0	0	6.441781106E+02	2.397098894E+02	-8.809240762E+02	1.117342158E+03	1.000000000E-05	0.000000000E+00	0.000000000E+00

</event>
<event>
	4	1	3.267126300E-02	1.652695000E+03	7.818608000E-03	8.788814000E-02
	1	-1	0	0	501	0	0.000000000E+00	0.000000000E+00	6.799471574E+02	6.799471575E+02	5.040000000E-03	0.000000000E+00	-1.000000000E+00
	-2	-1	0	0	0	501	-0.000000000E+00	-0.000000000E+00	-1.004269863E+03	1.004269863E+03	2.550000000E-03	0.000000000E+00	1.000000000E+00
	-24	1	1	2	0	0	5.728295401E+02	5.712372720E+02	-6.946744852E-01	8.129071988E+02	7.982435975E+01	0.000000000E+00	-1.000000000E+00
	9000005	1	1	2	0	0	-5.728295401E+02	-5.712372720E+02	-3.236280312E+02	8.713098218E+02	1.000000000E-05	0.000000000E+00	0.000000000E+00

</event>
<event>
	4	1	3.267126300E-02	3.084159000E+03	7.818608000E-03	8.220099000E-02
	1	-1	0	0	501	0	0.000000000E+00	0.000000000E+00	2.765241380E+03	2.765241380E+03	5.040000000E-03	0.000000000E+00	-1.000000000E+00
	-2	-1	0	0	0	501	-0.000000000E+00	-0.000000000E+00	-8.599643375E+02	8.599643375E+02	2.550000000E-03	0.000000000E+00	1.000000000E+00
	-24	1	1	2	0	0	6.101553935E+02	8.870400989E+02	2.249285959E+03	2.494952704E+03	7.982435975E+01	0.000000000E+00	-1.000000000E+00
	9000005	1	1	2	0	0	-6.101553935E+02	-8.870400989E+02	-3.440089161E+02	1.130253014E+03	1.000000000E-05	0.000000000E+00	0.000000000E+00

</event>
<event>
	4	1	3.267126300E-02	2.143534000E+03	7.818608000E-03	8.542305000E-02
	3	-1	0	0	501	0	0.000000000E+00	0.000000000E+00	1.237617305E+03	1.237617309E+03	1.010000000E-01	0.000000000E+00	-1.000000000E+00
	-4	-1	0	0	0	501	-0.000000000E+00	-0.000000000E+00	-9.281408505E+02	9.281417194E+02	1.270000000E+00	0.000000000E+00	1.000000000E+00
	-24	1	1	2	0	0	-7.188565608E+02	2.778069696E+01	9.556173783E+02	1.198792319E+03	7.982435975E+01	0.000000000E+00	-1.000000000E+00
	9000005	1	1	2	0	0	7.188565608E+02	-2.778069696E+01	-6.461409243E+02	9.669667090E+02	1.000000000E-05	0.000000000E+00	0.000000000E+00

</event>
<event>
	6	1	3.267126300E-02	4.235269000E+03	7.818608000E-03	7.958697000E-02
	-1	-1	0	0	0	501	-0.000000000E+00	0.000000000E+00	1.710491377E+03	1.710491377E+03	2.550000000E-03	0.000000000E+00	1.000000000E+00
	2	-1	0	0	501	0	0.000000000E+00	-0.000000000E+00	-2.621688349E+03	2.621688349E+03	5.040000000E-03	0.000000000E+00	-1.000000000E+00
	24	2	1	2	0	0	5.329719227E+02	1.993638886E+03	2.684391229E+01	2.065337036E+03	7.900253139E+01	0.000000000E+00	0.000000000E+00
	-11	1	3	3	0	0	4.292068178E+02	1.478161146E+03	9.875912288E+00	1.539245399E+03	5.110000000E-04	0.000000000E+00	1.000000000E+00
	12	1	3	3	0	0	1.037651049E+02	5.154777401E+02	1.696800001E+01	5.260916370E+02	0.000000000E+00	0.000000000E+00	-1.000000000E+00
	9000005	1	1	2	0	0	-5.329719227E+02	-1.993638886E+03	-9.380408841E+02	2.266842689E+03	1.000000000E-05	0.000000000E+00	0.000000000E+00

</event>
<event>
	4	1	3.267126300E-02	1.744758000E+03	7.818608000E-03	8.736241000E-02
	-2	-1	0	0	0	501	-0.000000000E+00	0.000000000E+00	5.430825488E+02	5.430825488E+02	5.040000000E-03	0.000000000E+00	1.000000000E+00
	1	-1	0	0	501	0	0.000000000E+00	-0.000000000E+00	-1.401342620E+03	1.401342620E+03	2.550000000E-03	0.000000000E+00	-1.000000000E+00
	-24	1	1	2	0	0	4.639400691E+02	-7.306990220E+02	-5.339800281E+02	1.020131387E+03	7.982435975E+01	0.000000000E+00	-1.000000000E+00
	9000005	1	1	2	0	0	-4.639400691E+02	7.306990220E+02	-3.242800431E+02	9.242937816E+02	1.000000000E-05	0.000000000E+00	0.000000000E+00

</event>
<event>
	4	1	3.267126300E-02	1.443228000E+03	7.818608000E-03	8.923109000E-02
	-4	-1	0	0	0	501	-0.000000000E+00	0.000000000E+00	4.033165376E+02	4.033185371E+02	1.010000000E-01	0.000000000E+00	1.000000000E+00
	3	-1	0	0	501	0	0.000000000E+00	-0.000000000E+00	-1.291107645E+03	1.291107649E+03	1.270000000E+00	0.000000000E+00	-1.000000000E+00
	-24	1	1	2	0	0	3.723880203E+02	-5.231032188E+02	-6.438980050E+01	6.502520973E+02	7.982435975E+01	0.000000000E+00	1.000000000E+00
	9000005	1	1	2	0	0	-3.723880203E+02	5.231032188E+02	-8.234013066E+02	1.044174088E+03	1.000000000E-05	0.000000000E+00	0.000000000E+00

</event>
<event>
	4	1	3.267126300E-02	1.342437000E+03	7.818608000E-03	8.996573000E-02
	-2	-1	0	0	0	501	-0.000000000E+00	0.000000000E+00	7.409395170E+02	7.409395170E+02	5.040000000E-03	0.000000000E+00	1.000000000E+00
	1	-1	0	0	501	0	0.000000000E+00	-0.000000000E+00	-6.080584986E+02	6.080584986E+02	2.550000000E-03	0.000000000E+00	-1.000000000E+00
	-24	1	1	2	0	0	-3.349125587E+02	5.787514453E+02	8.206631629E+01	6.783999308E+02	7.982435975E+01	0.000000000E+00	-1.000000000E+00
	9000005	1	1	2	0	0	3.349125587E+02	-5.787514453E+02	5.081470216E+01	6.705980848E+02	1.000000000E-05	0.000000000E+00	0.000000000E+00

</event>
<event>
	4	1	3.267126300E-02	1.843600000E+03	7.818608000E-03	8.683451000E-02
	1	-1	0	0	501	0	0.000000000E+00	0.000000000E+00	3.437986159E+03	3.437986159E+03	5.040000000E-03	0.000000000E+00	-1.000000000E+00
	-2	-1	0	0	0	501	-0.000000000E+00	-0.000000000E+00	-2.471549194E+02	2.471549194E+02	2.550000000E-03	0.000000000E+00	1.000000000E+00
	-24	1	1	2	0	0	8.409983710E+02	2.329648857E+02	1.015701030E+03	1.341481050E+03	7.982435975E+01	0.000000000E+00	1.000000000E+00
	9000005	1	1	2	0	0	-8.409983710E+02	-2.329648857E+02	2.175130210E+03	2.343660028E+03	1.000000000E-05	0.000000000E+00	0.000000000E+00

</event>
<event>
	4	1	3.267126300E-02	1.534945000E+03	7.818608000E-03	8.861542000E-02
	-2	-1	0	0	0	501	-0.000000000E+00	0.000000000E+00	2.156897396E+02	2.156897396E+02	5.040000000E-03	0.000000000E+00	1.000000000E+00
	1	-1	0	0	501	0	0.000000000E+00	-0.000000000E+00	-2.730839041E+03	2.730839041E+03	2.550000000E-03	0.000000000E+00	-1.000000000E+00
	-24	1	1	2	0	0	-5.925683470E+02	-4.809353082E+02	-1.372847441E+03	1.572742205E+03	7.982435975E+01	0.000000000E+00	1.000000000E+00
	9000005	1	1	2	0	0	5.925683470E+02	4.809353082E+02	-1.142301860E+03	1.373786576E+03	1.000000000E-05	0.000000000E+00	0.000000000E+00

</event>
<event>
	4	1	3.267126300E-02	1.308310000E+03	7.818608000E-03	9.023001000E-02
	-2	-1	0	0	0	501	-0.000000000E+00	0.000000000E+00	5.573657477E+02	5.573657477E+02	5.040000000E-03	0.000000000E+00	1.000000000E+00
	1	-1	0	0	501	0	0.000000000E+00	-0.000000000E+00	-7.677526981E+02	7.677526981E+02	2.550000000E-03	0.000000000E+00	-1.000000000E+00
	-24	1	1	2	0	0	2.216851593E+02	6.099956852E+02	-4.566442768E+01	6.555121770E+02	7.982435975E+01	0.000000000E+00	1.000000000E+00
	9000005	1	1	2	0	0	-2.216851593E+02	-6.099956852E+02	-1.647225227E+02	6.696062688E+02	1.000000000E-05	0.000000000E+00	0.000000000E+00

</event>
<event>
	4	1	3.267126300E-02	3.162753000E+03	7.818608000E-03	8.198724000E-02
	-2	-1	0	0	0	501	-0.000000000E+00	0.000000000E+00	4.914598495E+02	4.914598495E+02	5.040000000E-03	0.000000000E+00	1.000000000E+00
	1	-1	0	0	501	0	0.000000000E+00	-0.000000000E+00	-5.088415602E+03	5.088415602E+03	2.550000000E-03	0.000000000E+00	-1.000000000E+00
	-24	1	1	2	0	0	1.145887734E+03	-2.539358146E+02	-4.328185200E+02	1.253493477E+03	7.982435975E+01	0.000000000E+00	1.000000000E+00
	9000005	1	1	2	0	0	-1.145887734E+03	2.539358146E+02	-4.164137232E+03	4.326381974E+03	1.000000000E-05	0.000000000E+00	0.000000000E+00

</event>
<event>
	4	1	3.267126300E-02	1.766614000E+03	7.818608000E-03	8.724258000E-02
	-2	-1	0	0	0	501	-0.000000000E+00	0.000000000E+00	7.108016952E+02	7.108016952E+02	5.040000000E-03	0.000000000E+00	1.000000000E+00
	1	-1	0	0	501	0	0.000000000E+00	-0.000000000E+00	-1.097677779E+03	1.097677779E+03	2.550000000E-03	0.000000000E+00	-1.000000000E+00
	-24	1	1	2	0	0	-5.041845672E+02	-4.758416049E+02	-7.511811221E+02	1.025315716E+03	7.982435975E+01	0.000000000E+00	-1.000000000E+00
	9000005	1	1	2	0	0	5.041845672E+02	4.758416049E+02	3.643050385E+02	7.831637580E+02	1.000000000E-05	0.000000000E+00	0.000000000E+00

</event>
<event>
	4	1	3.267126300E-02	2.190148000E+03	7.818608000E-03	8.522540000E-02
	-4	-1	0	0	0	501	-0.000000000E+00	0.000000000E+00	2.292993177E+03	2.292993528E+03	1.010000000E-01	0.000000000E+00	1.000000000E+00
	3	-1	0	0	501	0	0.000000000E+00	-0.000000000E+00	-5.229787051E+02	5.229787148E+02	1.270000000E+00	0.000000000E+00	-1.000000000E+00
	-24	1	1	2	0	0	-1.010248845E+03	-4.169072052E+02	9.374342389E+02	1.442071159E+03	7.982435975E+01	0.000000000E+00	-1.000000000E+00
	9000005	1	1	2	0	0	1.010248845E+03	4.169072052E+02	8.325802328E+02	1.373901085E+03	1.000000000E-05	0.000000000E+00	0.000000000E+00

</event>
<event>
	4	1	3.267126300E-02	2.758537000E+03	7.818608000E-03	8.316258000E-02
	1	-1	0	0	501	0	0.000000000E+00	0.000000000E+00	2.179553775E+03	2.179553775E+03	5.040000000E-03	0.000000000E+00	-1.000000000E+00
	-2	-1	0	0	0	501	-0.000000000E+00	-0.000000000E+00	-8.728309529E+02	8.728309529E+02	2.550000000E-03	0.000000000E+00	1.000000000E+00
	-24	1	1	2	0	0	4.360485482E+02	-1.236356633E+03	1.123993657E+03	1.728713316E+03	7.982435975E+01	0.000000000E+00	-1.000000000E+00
	9000005	1	1	2	0	0	-4.360485482E+02	1.236356633E+03	1.827291654E+02	1.323671412E+03	1.000000000E-05	0.000000000E+00	0.000000000E+00

</event>
<event>
	4	1	3.267126300E-02	2.429615000E+03	7.818608000E-03	8.428499000E-02
	-2	-1	0	0	0	501	-0.000000000E+00	0.000000000E+00	7.508202275E+02	7.508202275E+02	5.040000000E-03	0.000000000E+00	1.000000000E+00
	1	-1	0	0	501	0	0.000000000E+00	-0.000000000E+00	-1.965526232E+03	1.965526232E+03	2.550000000E-03	0.000000000E+00	-1.000000000E+00
	-24	1	1	2	0	0	-2.907450639E+02	1.015876404E+03	5.909631037E+01	1.061320811E+03	7.982435975E+01	0.000000000E+00	1.000000000E+00
	9000005	1	1	2	0	0	2.907450639E+02	-1.015876404E+03	-1.273802314E+03	1.655025648E+03	1.000000000E-05	0.000000000E+00	0.000000000E+00

</event>
<event>
	6	1	3.267126300E-02	2.557673000E+03	7.818608000E-03	8.382722000E-02
	2	-1	0	0	501	0	0.000000000E+00	0.000000000E+00	1.587715283E+03	1.587715283E+03	2.550000000E-03	0.000000000E+00	-1.000000000E+00
	-1	-1	0	0	0	501	-0.000000000E+00	-0.000000000E+00	-1.030048198E+03	1.030048198E+03	5.040000000E-03	0.000000000E+00	1.000000000E+00
	24	2	1	2	0	0	7.952211680E+02	-9.993435455E+02	2.440779943E+02	1.302696051E+03	7.986680577E+01	0.000000000E+00	0.000000000E+00
	-11	1	3	3	0	0	6.173411419E+02	-7.199436784E+02	1.772985450E+02	9.648128106E+02	5.110000000E-04	0.000000000E+00	1.000000000E+00
	12	1	3	3	0	0	1.778800261E+02	-2.793998672E+02	6.677944930E+01	3.378832407E+02	0.000000000E+00	0.000000000E+00	-1.000000000E+00
	9000005	1	1	2	0	0	-7.952211680E+02	9.993435455E+02	3.135890911E+02	1.315067430E+03	1.000000000E-05	0.000000000E+00	0.000000000E+00

</event>
<event>
	4	1	3.267126300E-02	1.585758000E+03	7.818608000E-03	8.829345000E-02
	-2	-1	0	0	0	501	-0.000000000E+00	0.000000000E+00	6.675004847E+02	6.675004847E+02	5.040000000E-03	0.000000000E+00	1.000000000E+00
	1	-1	0	0	501	0	0.000000000E+00	-0.000000000E+00	-9.418081030E+02	9.418081030E+02	2.550000000E-03	0.000000000E+00	-1.000000000E+00
	-24	1	1	2	0	0	-4.775689463E+02	-6.173438647E+02	-7.974014480E+00	7.846152300E+02	7.982435975E+01	0.000000000E+00	1.000000000E+00
	9000005	1	1	2	0	0	4.775689463E+02	6.173438647E+02	-2.663336038E+02	8.246933577E+02	1.000000000E-05	0.000000000E+00	0.000000000E+00

</event>
<event>
	4	1	3.267126300E-02	1.893013000E+03	7.818608000E-03	8.658342000E-02
	1	-1	0	0	501	0	0.000000000E+00	0.000000000E+00	1.538938585E+03	1.538938585E+03	5.040000000E-03	0.000000000E+00	-1.000000000E+00
	-4	-1	0	0	0	501	-0.000000000E+00	-0.000000000E+00	-5.821367611E+02	5.821381465E+02	1.270000000E+00	0.000000000E+00	1.000000000E+00
	-24	1	1	2	0	0	-6.248731108E+02	-1.237204463E+01	1.273187936E+03	1.420562889E+03	7.982435975E+01	0.000000000E+00	-1.000000000E+00
	9000005	1	1	2	0	0	6.248731108E+02	1.237204463E+01	-3.163861121E+02	7.005138428E+02	1.000000000E-05	0.000000000E+00	0.000000000E+00

</event>
<event>
	4	1	3.267126300E-02	1.660201000E+03	7.818608000E-03	8.784394000E-02
	-2	-1	0	0	0	501	-0.000000000E+00	0.000000000E+00	6.121663228E+02	6.121663228E+02	5.040000000E-03	0.000000000E+00	1.000000000E+00
	1	-1	0	0	501	0	0.000000000E+00	-0.000000000E+00	-1.125620593E+03	1.125620593E+03	2.550000000E-03	0.000000000E+00	-1.000000000E+00
	-24	1	1	2	0	0	1.259719453E+02	8.063752791E+02	-1.101263585E+02	8.274114846E+02	7.982435975E+01	0.000000000E+00	-1.000000000E+00
	9000005	1	1	2	0	0	-1.259719453E+02	-8.063752791E+02	-4.033279121E+02	9.103754315E+02	1.000000000E-05	0.000000000E+00	0.000000000E+00

</event>
<event>
	4	1	3.267126300E-02	1.421002000E+03	7.818608000E-03	8.938755000E-02
	-2	-1	0	0	0	501	-0.000000000E+00	0.000000000E+00	2.382273242E+02	2.382273242E+02	5.040000000E-03	0.000000000E+00	1.000000000E+00
	1	-1	0	0	501	0	0.000000000E+00	-0.000000000E+00	-2.119034800E+03	2.119034800E+03	2.550000000E-03	0.000000000E+00	-1.000000000E+00
	-24	1	1	2	0	0	-4.239966953E+02	4.599458129E+02	-1.494326076E+03	1.621945035E+03	7.982435975E+01	0.000000000E+00	1.000000000E+00
	9000005	1	1	2	0	0	4.239966953E+02	-4.599458129E+02	-3.864813996E+02	7.353170885E+02	1.000000000E-05	0.000000000E+00	0.000000000E+00

</event>
<event>
	4	1	3.267126300E-02	1.621096000E+03	7.818608000E-03	8.807692000E-02
	-4	-1	0	0	0	501	-0.000000000E+00	0.000000000E+00	2.842741358E+02	2.842769727E+02	5.040000000E-03	0.000000000E+00	1.000000000E+00
	1	-1	0	0	501	0	0.000000000E+00	-0.000000000E+00	-2.311094949E+03	2.311094949E+03	1.270000000E+00	0.000000000E+00	-1.000000000E+00
	-24	1	1	2	0	0	4.238069475E+02	6.748144311E+02	-1.235497778E+03	1.472349664E+03	7.982435975E+01	0.000000000E+00	1.000000000E+00
	9000005	1	1	2	0	0	-4.238069475E+02	-6.748144311E+02	-7.913230352E+02	1.123022258E+03	1.000000000E-05	0.000000000E+00	0.000000000E+00

</event>
<event>
	4	1	3.267126300E-02	2.138686000E+03	7.818608000E-03	8.544391000E-02
	1	-1	0	0	501	0	0.000000000E+00	0.000000000E+00	7.645039969E+02	7.645039969E+02	5.040000000E-03	0.000000000E+00	-1.000000000E+00
	-2	-1	0	0	0	501	-0.000000000E+00	-0.000000000E+00	-1.495733488E+03	1.495733488E+03	2.550000000E-03	0.000000000E+00	1.000000000E+00
	-24	1	1	2	0	0	-5.463635548E+02	8.820815279E+02	-9.932922651E+01	1.045379921E+03	7.982435975E+01	0.000000000E+00	1.000000000E+00
	9000005	1	1	2	0	0	5.463635548E+02	-8.820815279E+02	-6.319002645E+02	1.214857564E+03	1.000000000E-05	0.000000000E+00	0.000000000E+00

</event>
<event>
	4	1	3.267126300E-02	1.596725000E+03	7.818608000E-03	8.822563000E-02
	-2	-1	0	0	0	501	-0.000000000E+00	0.000000000E+00	3.300520331E+02	3.300520331E+02	5.040000000E-03	0.000000000E+00	1.000000000E+00
	1	-1	0	0	501	0	0.000000000E+00	-0.000000000E+00	-1.931157232E+03	1.931157232E+03	2.550000000E-03	0.000000000E+00	-1.000000000E+00
	-24	1	1	2	0	0	-1.106669312E+02	7.316599188E+02	-3.857441559E+02	8.382982099E+02	7.982435975E+01	0.000000000E+00	1.000000000E+00
	9000005	1	1	2	0	0	1.106669312E+02	-7.316599188E+02	-1.215361043E+03	1.422911055E+03	1.000000000E-05	0.000000000E+00	0.000000000E+00

</event>
<event>
	4	1	3.267126300E-02	2.302543000E+03	7.818608000E-03	8.476919000E-02
	-2	-1	0	0	0	501	-0.000000000E+00	0.000000000E+00	7.371945179E+02	7.371945179E+02	5.040000000E-03	0.000000000E+00	1.000000000E+00
	1	-1	0	0	501	0	0.000000000E+00	-0.000000000E+00	-1.797931950E+03	1.797931950E+03	2.550000000E-03	0.000000000E+00	-1.000000000E+00
	-24	1	1	2	0	0	-1.454180981E+02	7.664944423E+02	3.990597342E+02	8.799322435E+02	7.982435975E+01	0.000000000E+00	1.000000000E+00
	9000005	1	1	2	0	0	1.454180981E+02	-7.664944423E+02	-1.459797166E+03	1.655194224E+03	1.000000000E-05	0.000000000E+00	0.000000000E+00

</event>
<event>
	4	1	3.267126300E-02	1.938910000E+03	7.818608000E-03	8.635727000E-02
	1	-1	0	0	501	0	0.000000000E+00	0.000000000E+00	1.485199199E+03	1.485199199E+03	5.040000000E-03	0.000000000E+00	-1.000000000E+00
	-2	-1	0	0	0	501	-0.000000000E+00	-0.000000000E+00	-6.328059083E+02	6.328059083E+02	2.550000000E-03	0.000000000E+00	1.000000000E+00
	-24	1	1	2	0	0	9.086272891E+02	3.160484394E+02	5.423664555E+02	1.107259440E+03	7.982435975E+01	0.000000000E+00	-1.000000000E+00
	9000005	1	1	2	0	0	-9.086272891E+02	-3.160484394E+02	3.100268356E+02	1.010745668E+03	1.000000000E-05	0.000000000E+00	0.000000000E+00

</event>
<event>
	4	1	3.267126300E-02	1.309637000E+03	7.818608000E-03	9.021958000E-02
	1	-1	0	0	501	0	0.000000000E+00	0.000000000E+00	1.178482481E+03	1.178482481E+03	5.040000000E-03	0.000000000E+00	-1.000000000E+00
	-2	-1	0	0	0	501	-0.000000000E+00	-0.000000000E+00	-3.638468471E+02	3.638468471E+02	2.550000000E-03	0.000000000E+00	1.000000000E+00
	-24	1	1	2	0	0	2.134337143E+02	-6.162214876E+02	3.876257563E+02	7.628292912E+02	7.982435975E+01	0.000000000E+00	-1.000000000E+00
	9000005	1	1	2	0	0	-2.134337143E+02	6.162214876E+02	4.270098780E+02	7.795000372E+02	1.000000000E-05	0.000000000E+00	0.000000000E+00

</event>
<event>
	4	1	3.267126300E-02	2.619809000E+03	7.818608000E-03	8.361504000E-02
	-2	-1	0	0	0	501	-0.000000000E+00	0.000000000E+00	1.242016033E+03	1.242016033E+03	5.040000000E-03	0.000000000E+00	1.000000000E+00
	1	-1	0	0	501	0	0.000000000E+00	-0.000000000E+00	-1.381503787E+03	1.381503787E+03	2.550000000E-03	0.000000000E+00	-1.000000000E+00
	-24	1	1	2	0	0	9.684896993E+02	-7.765900633E+02	-4.846428217E+02	1.335033714E+03	7.982435975E+01	0.000000000E+00	-1.000000000E+00
	9000005	1	1	2	0	0	-9.684896993E+02	7.765900633E+02	3.451550679E+02	1.288486106E+03	1.000000000E-05	0.000000000E+00	0.000000000E+00

</event>
<event>
	4	1	3.267126300E-02	3.791911000E+03	7.818608000E-03	8.047893000E-02
	-2	-1	0	0	0	501	-0.000000000E+00	0.000000000E+00	1.273230603E+03	1.273230603E+03	5.040000000E-03	0.000000000E+00	1.000000000E+00
	1	-1	0	0	501	0	0.000000000E+00	-0.000000000E+00	-2.823249640E+03	2.823249640E+03	2.550000000E-03	0.000000000E+00	-1.000000000E+00
	-24	1	1	2	0	0	1.759396366E+03	-1.913078463E+02	-1.507574789E+03	2.326204621E+03	7.982435975E+01	0.000000000E+00	1.000000000E+00
	9000005	1	1	2	0	0	-1.759396366E+03	1.913078463E+02	-4.244424811E+01	1.770275622E+03	1.000000000E-05	0.000000000E+00	0.000000000E+00

</event>
<event>
	4	1	3.267126300E-02	1.536192000E+03	7.818608000E-03	8.860736000E-02
	1	-1	0	0	501	0	0.000000000E+00	0.000000000E+00	1.568648259E+03	1.568648259E+03	5.040000000E-03	0.000000000E+00	-1.000000000E+00
	-2	-1	0	0	0	501	-0.000000000E+00	-0.000000000E+00	-3.761019153E+02	3.761019153E+02	2.550000000E-03	0.000000000E+00	1.000000000E+00
	-24	1	1	2	0	0	2.336618385E+02	6.860997036E+02	2.840404573E+02	7.825481250E+02	7.982435975E+01	0.000000000E+00	1.000000000E+00
	9000005	1	1	2	0	0	-2.336618385E+02	-6.860997036E+02	9.085058865E+02	1.162202049E+03	1.000000000E-05	0.000000000E+00	0.000000000E+00

</event>
<event>
	4	1	3.267126300E-02	1.636512000E+03	7.818608000E-03	8.798426000E-02
	1	-1	0	0	501	0	0.000000000E+00	0.000000000E+00	3.782717908E+03	3.782717908E+03	5.040000000E-03	0.000000000E+00	-1.000000000E+00
	-4	-1	0	0	0	501	-0.000000000E+00	-0.000000000E+00	-1.769980068E+02	1.770025630E+02	1.270000000E+00	0.000000000E+00	1.000000000E+00
	-24	1	1	2	0	0	3.095870713E+02	5.802351643E+02	6.370897494E+02	9.191149427E+02	7.982435975E+01	0.000000000E+00	1.000000000E+00
	9000005	1	1	2	0	0	-3.095870713E+02	-5.802351643E+02	2.968630152E+03	3.040605528E+03	1.000000000E-05	0.000000000E+00	0.000000000E+00

</event>
<event>
	4	1	3.267126300E-02	1.536308000E+03	7.818608000E-03	8.860661000E-02
	-2	-1	0	0	0	501	-0.000000000E+00	0.000000000E+00	4.121896592E+02	4.121896592E+02	5.040000000E-03	0.000000000E+00	1.000000000E+00
	1	-1	0	0	501	0	0.000000000E+00	-0.000000000E+00	-1.431526879E+03	1.431526879E+03	2.550000000E-03	0.000000000E+00	-1.000000000E+00
	-24	1	1	2	0	0	6.875185838E+02	2.832273618E+02	-2.898249977E+02	8.020411456E+02	7.982435975E+01	0.000000000E+00	-1.000000000E+00
	9000005	1	1	2	0	0	-6.875185838E+02	-2.832273618E+02	-7.295122222E+02	1.041675393E+03	1.000000000E-05	0.000000000E+00	0.000000000E+00

</event>
<event>
	4	1	3.267126300E-02	2.891208000E+03	7.818608000E-03	8.275498000E-02
	1	-1	0	0	501	0	0.000000000E+00	0.000000000E+00	1.554222257E+03	1.554222257E+03	5.040000000E-03	0.000000000E+00	-1.000000000E+00
	-2	-1	0	0	0	501	-0.000000000E+00	-0.000000000E+00	-1.344576197E+03	1.344576197E+03	2.550000000E-03	0.000000000E+00	1.000000000E+00
	-24	1	1	2	0	0	9.285644693E+02	-9.219775535E+02	7.183187959E+02	1.494867353E+03	7.982435975E+01	0.000000000E+00	-1.000000000E+00
	9000005	1	1	2	0	0	-9.285644693E+02	9.219775535E+02	-5.086727356E+02	1.403931100E+03	1.000000000E-05	0.000000000E+00	0.000000000E+00

</event>
<event>
	4	1	3.267126300E-02	2.895611000E+03	7.818608000E-03	8.274184000E-02
	1	-1	0	0	501	0	0.000000000E+00	0.000000000E+00	2.499122052E+03	2.499122052E+03	5.040000000E-03	0.000000000E+00	-1.000000000E+00
	-2	-1	0	0	0	501	-0.000000000E+00	-0.000000000E+00	-8.387511210E+02	8.387511210E+02	2.550000000E-03	0.000000000E+00	1.000000000E+00
	-24	1	1	2	0	0	1.190172640E+03	6.821234484E+02	3.011181191E+02	1.406715096E+03	7.982435975E+01	0.000000000E+00	1.000000000E+00
	9000005	1	1	2	0	0	-1.190172640E+03	-6.821234484E+02	1.359252812E+03	1.931158077E+03	1.000000000E-05	0.000000000E+00	0.000000000E+00

</event>
<event>
	4	1	3.267126300E-02	1.364046000E+03	7.818608000E-03	8.980263000E-02
	1	-1	0	0	501	0	0.000000000E+00	0.000000000E+00	1.626963644E+03	1.626963644E+03	5.040000000E-03	0.000000000E+00	-1.000000000E+00
	-2	-1	0	0	0	501	-0.000000000E+00	-0.000000000E+00	-2.859038579E+02	2.859038580E+02	2.550000000E-03	0.000000000E+00	1.000000000E+00
	-24	1	1	2	0	0	5.985134689E+02	-3.207563770E+02	6.314237096E+02	9.306830047E+02	7.982435975E+01	0.000000000E+00	1.000000000E+00
	9000005	1	1	2	0	0	-5.985134689E+02	3.207563770E+02	7.096360769E+02	9.821844977E+02	1.000000000E-05	0.000000000E+00	0.000000000E+00

</event>
<event>
	4	1	3.267126300E-02	1.290570000E+03	7.818608000E-03	9.037077000E-02
	-2	-1	0	0	0	501	-0.000000000E+00	0.000000000E+00	2.602410821E+02	2.602410821E+02	5.040000000E-03	0.000000000E+00	1.000000000E+00
	1	-1	0	0	501	0	0.000000000E+00	-0.000000000E+00	-1.600026351E+03	1.600026351E+03	2.550000000E-03	0.000000000E+00	-1.000000000E+00
	-24	1	1	2	0	0	5.891463133E+01	6.002483478E+02	-9.929711934E+02	1.164531121E+03	7.982435975E+01	0.000000000E+00	-1.000000000E+00
	9000005	1	1	2	0	0	-5.891463133E+01	-6.002483478E+02	-3.468140755E+02	6.957363120E+02	1.000000000E-05	0.000000000E+00	0.000000000E+00

</event>
<event>
	4	1	3.267126300E-02	1.535935000E+03	7.818608000E-03	8.860902000E-02
	-2	-1	0	0	0	501	-0.000000000E+00	0.000000000E+00	3.269600017E+02	3.269600017E+02	5.040000000E-03	0.000000000E+00	1.000000000E+00
	1	-1	0	0	501	0	0.000000000E+00	-0.000000000E+00	-1.803811226E+03	1.803811226E+03	2.550000000E-03	0.000000000E+00	-1.000000000E+00
	-24	1	1	2	0	0	3.960010342E+02	-5.339150036E+02	-2.126875807E+02	7.024884237E+02	7.982435975E+01	0.000000000E+00	1.000000000E+00
	9000005	1	1	2	0	0	-3.960010342E+02	5.339150036E+02	-1.264163643E+03	1.428282804E+03	1.000000000E-05	0.000000000E+00	0.000000000E+00

</event>
<event>
	4	1	3.267126300E-02	2.500119000E+03	7.818608000E-03	8.402943000E-02
	1	-1	0	0	501	0	0.000000000E+00	0.000000000E+00	1.879785474E+03	1.879785474E+03	5.040000000E-03	0.000000000E+00	-1.000000000E+00
	-2	-1	0	0	0	501	-0.000000000E+00	-0.000000000E+00	-8.312913274E+02	8.312913274E+02	2.550000000E-03	0.000000000E+00	1.000000000E+00
	-24	1	1	2	0	0	1.107800498E+03	5.763641123E+02	5.173088418E+02	1.354030243E+03	7.982435975E+01	0.000000000E+00	1.000000000E+00
	9000005	1	1	2	0	0	-1.107800498E+03	-5.763641123E+02	5.311853045E+02	1.357046558E+03	1.000000000E-05	0.000000000E+00	0.000000000E+00

</event>
<event>
	4	1	3.267126300E-02	1.657843000E+03	7.818608000E-03	8.785780000E-02
	-2	-1	0	0	0	501	-0.000000000E+00	0.000000000E+00	5.660649723E+02	5.660649723E+02	5.040000000E-03	0.000000000E+00	1.000000000E+00
	1	-1	0	0	501	0	0.000000000E+00	-0.000000000E+00	-1.213838022E+03	1.213838022E+03	2.550000000E-03	0.000000000E+00	-1.000000000E+00
	-24	1	1	2	0	0	-6.086565826E+02	-8.072862160E+01	2.701830715E+02	6.755373908E+02	7.982435975E+01	0.000000000E+00	1.000000000E+00
	9000005	1	1	2	0	0	6.086565826E+02	8.072862160E+01	-9.179561216E+02	1.104365604E+03	1.000000000E-05	0.000000000E+00	0.000000000E+00

</event>
<event>
	4	1	3.267126300E-02	1.871204000E+03	7.818608000E-03	8.669324000E-02
	-2	-1	0	0	0	501	-0.000000000E+00	0.000000000E+00	1.277969234E+03	1.277969234E+03	5.040000000E-03	0.000000000E+00	1.000000000E+00
	1	-1	0	0	501	0	0.000000000E+00	-0.000000000E+00	-6.849545291E+02	6.849545291E+02	2.550000000E-03	0.000000000E+00	-1.000000000E+00
	-24	1	1	2	0	0	8.379649078E+02	1.463913237E+02	7.013637806E+02	1.105395263E+03	7.982435975E+01	0.000000000E+00	1.000000000E+00
	9000005	1	1	2	0	0	-8.379649078E+02	-1.463913237E+02	-1.083490757E+02	8.575285001E+02	1.000000000E-05	0.000000000E+00	0.000000000E+00

</event>
<event>
	4	1	3.267126300E-02	1.933643000E+03	7.818608000E-03	8.638289000E-02
	-2	-1	0	0	0	501	-0.000000000E+00	0.000000000E+00	1.469282516E+03	1.469282516E+03	5.040000000E-03	0.000000000E+00	1.000000000E+00
	1	-1	0	0	501	0	0.000000000E+00	-0.000000000E+00	-6.361908174E+02	6.361908174E+02	2.550000000E-03	0.000000000E+00	-1.000000000E+00
	-24	1	1	2	0	0	8.087475576E+02	-4.457864699E+02	7.228417108E+02	1.175444706E+03	7.982435975E+01	0.000000000E+00	-1.000000000E+00
	9000005	1	1	2	0	0	-8.087475576E+02	4.457864699E+02	1.102499878E+02	9.300286278E+02	1.000000000E-05	0.000000000E+00	0.000000000E+00

</event>
<event>
	4	1	3.267126300E-02	1.386334000E+03	7.818608000E-03	8.963770000E-02
	-2	-1	0	0	0	501	-0.000000000E+00	0.000000000E+00	1.667779798E+02	1.667779799E+02	5.040000000E-03	0.000000000E+00	1.000000000E+00
	1	-1	0	0	501	0	0.000000000E+00	-0.000000000E+00	-2.880959797E+03	2.880959797E+03	2.550000000E-03	0.000000000E+00	-1.000000000E+00
	-24	1	1	2	0	0	-4.138489522E+02	4.692749241E+02	-7.176007397E+02	9.554122982E+02	7.982435975E+01	0.000000000E+00	1.000000000E+00
	9000005	1	1	2	0	0	4.138489522E+02	-4.692749241E+02	-1.996581078E+03	2.092325479E+03	1.000000000E-05	0.000000000E+00	0.000000000E+00

</event>
<event>
	4	1	3.267126300E-02	1.267224000E+03	7.818608000E-03	9.055969000E-02
	-4	-1	0	0	0	501	-0.000000000E+00	0.000000000E+00	7.302581625E+02	7.302592669E+02	1.010000000E-01	0.000000000E+00	1.000000000E+00
	3	-1	0	0	501	0	0.000000000E+00	-0.000000000E+00	-5.497553604E+02	5.497553697E+02	1.270000000E+00	0.000000000E+00	-1.000000000E+00
	-24	1	1	2	0	0	-9.222827233E+01	-5.973333104E+02	2.740222321E+02	6.684109889E+02	7.982435975E+01	0.000000000E+00	1.000000000E+00
	9000005	1	1	2	0	0	9.222827233E+01	5.973333104E+02	-9.351942998E+01	6.116036476E+02	1.000000000E-05	0.000000000E+00	0.000000000E+00

</event>
<event>
	4	1	3.267126300E-02	1.663002000E+03	7.818608000E-03	8.782752000E-02
	1	-1	0	0	501	0	0.000000000E+00	0.000000000E+00	2.322441314E+03	2.322441314E+03	5.040000000E-03	0.000000000E+00	-1.000000000E+00
	-2	-1	0	0	0	501	-0.000000000E+00	-0.000000000E+00	-2.977012842E+02	2.977012842E+02	2.550000000E-03	0.000000000E+00	1.000000000E+00
	-24	1	1	2	0	0	-2.523141752E+02	-6.453823493E+02	1.733316847E+03	1.868405749E+03	7.982435975E+01	0.000000000E+00	-1.000000000E+00
	9000005	1	1	2	0	0	2.523141752E+02	6.453823493E+02	2.914231823E+02	7.517368495E+02	1.000000000E-05	0.000000000E+00	0.000000000E+00

</event>
<event>
	4	1	3.267126300E-02	4.218129000E+03	7.818608000E-03	7.961933000E-02
	1	-1	0	0	501	0	0.000000000E+00	0.000000000E+00	2.393418325E+03	2.393418325E+03	5.040000000E-03	0.000000000E+00	-1.000000000E+00
	-2	-1	0	0	0	501	-0.000000000E+00	-0.000000000E+00	-1.858494056E+03	1.858494056E+03	2.550000000E-03	0.000000000E+00	1.000000000E+00
	-24	1	1	2	0	0	1.238311996E+03	1.702302945E+03	3.856130270E+02	2.141569810E+03	7.982435975E+01	0.000000000E+00	-1.000000000E+00
	9000005	1	1	2	0	0	-1.238311996E+03	-1.702302945E+03	1.493112415E+02	2.110342570E+03	1.000000000E-05	0.000000000E+00	0.000000000E+00

</event>
<event>
	4	1	3.267126300E-02	1.440718000E+03	7.818608000E-03	8.924861000E-02
	-2	-1	0	0	0	501	-0.000000000E+00	0.000000000E+00	6.904084508E+02	6.904084508E+02	5.040000000E-03	0.000000000E+00	1.000000000E+00
	1	-1	0	0	501	0	0.000000000E+00	-0.000000000E+00	-7.516084862E+02	7.516084862E+02	2.550000000E-03	0.000000000E+00	-1.000000000E+00
	-24	1	1	2	0	0	-5.653507293E+02	3.407575038E+02	2.524014481E+02	7.112071027E+02	7.982435975E+01	0.000000000E+00	1.000000000E+00
	9000005	1	1	2	0	0	5.653507293E+02	-3.407575038E+02	-3.136014835E+02	7.308098343E+02	1.000000000E-05	0.000000000E+00	0.000000000E+00

</event>
<event>
	4	1	3.267126300E-02	2.999230000E+03	7.818608000E-03	8.243951000E-02
	-2	-1	0	0	0	501	-0.000000000E+00	0.000000000E+00	1.164284112E+03	1.164284112E+03	5.040000000E-03	0.000000000E+00	1.000000000E+00
	1	-1	0	0	501	0	0.000000000E+00	-0.000000000E+00	-1.931526080E+03	1.931526080E+03	2.550000000E-03	0.000000000E+00	-1.000000000E+00
	-24	1	1	2	0	0	1.402995351E+03	-4.206238059E+02	-7.108578981E+02	1.630034116E+03	7.982435975E+01	0.000000000E+00	1.000000000E+00
	9000005	1	1	2	0	0	-1.402995351E+03	4.206238059E+02	-5.638406920E+01	1.465776076E+03	1.000000000E-05	0.000000000E+00	0.000000000E+00

</event>
<event>
	4	1	3.267126300E-02	1.749345000E+03	7.818608000E-03	8.733711000E-02
	-2	-1	0	0	0	501	-0.000000000E+00	0.000000000E+00	3.262506267E+02	3.262506268E+02	5.040000000E-03	0.000000000E+00	1.000000000E+00
	1	-1	0	0	501	0	0.000000000E+00	-0.000000000E+00	-2.344983484E+03	2.344983484E+03	2.550000000E-03	0.000000000E+00	-1.000000000E+00
	-24	1	1	2	0	0	-5.389569056E+02	-2.937613757E+02	-6.387302940E+01	6.222716322E+02	7.982435975E+01	0.000000000E+00	1.000000000E+00
	9000005	1	1	2	0	0	5.389569056E+02	2.937613757E+02	-1.954859828E+03	2.048962479E+03	1.000000000E-05	0.000000000E+00	0.000000000E+00

</event>
<event>
	4	1	3.267126300E-02	1.287870000E+03	7.818608000E-03	9.039240000E-02
	-2	-1	0	0	0	501	-0.000000000E+00	0.000000000E+00	2.318310420E+02	2.318310420E+02	5.040000000E-03	0.000000000E+00	1.000000000E+00
	1	-1	0	0	501	0	0.000000000E+00	-0.000000000E+00	-1.788596777E+03	1.788596777E+03	2.550000000E-03	0.000000000E+00	-1.000000000E+00
	-24	1	1	2	0	0	-4.260282475E+02	-4.685335827E+02	-6.210114185E+02	8.905340511E+02	7.982435975E+01	0.000000000E+00	1.000000000E+00
	9000005	1	1	2	0	0	4.260282475E+02	4.685335827E+02	-9.357543163E+02	1.129893768E+03	1.000000000E-05	0.000000000E+00	0.000000000E+00

</event>
<event>
	4	1	3.267126300E-02	1.844917000E+03	7.818608000E-03	8.682771000E-02
	1	-1	0	0	501	0	0.000000000E+00	0.000000000E+00	9.108596318E+02	9.108596318E+02	5.040000000E-03	0.000000000E+00	-1.000000000E+00
	-2	-1	0	0	0	501	-0.000000000E+00	-0.000000000E+00	-9.342050670E+02	9.342050670E+02	2.550000000E-03	0.000000000E+00	1.000000000E+00
	-24	1	1	2	0	0	-3.048990577E+02	-7.229595285E+02	-4.935139884E+02	9.303557923E+02	7.982435975E+01	0.000000000E+00	-1.000000000E+00
	9000005	1	1	2	0	0	3.048990577E+02	7.229595285E+02	4.701685531E+02	9.147089065E+02	1.000000000E-05	0.000000000E+00	0.000000000E+00

</event>
<event>
	4	1	3.267126300E-02	1.588212000E+03	7.818608000E-03	8.827823000E-02
	-2	-1	0	0	0	501	-0.000000000E+00	0.000000000E+00	1.211822774E+03	1.211822774E+03	5.040000000E-03	0.000000000E+00	1.000000000E+00
	1	-1	0	0	501	0	0.000000000E+00	-0.000000000E+00	-5.203766022E+02	5.203766022E+02	2.550000000E-03	0.000000000E+00	-1.000000000E+00
	-24	1	1	2	0	0	-3.529156535E+02	-4.957494819E+02	-2.064287946E+02	6.475351596E+02	7.982435975E+01	0.000000000E+00	-1.000000000E+00
	9000005	1	1	2	0	0	3.529156535E+02	4.957494819E+02	8.978749662E+02	1.084664216E+03	1.000000000E-05	0.000000000E+00	0.000000000E+00

</event>
<event>
	4	1	3.267126300E-02	1.635462000E+03	7.818608000E-03	8.799054000E-02
	1	-1	0	0	501	0	0.000000000E+00	0.000000000E+00	6.225098546E+02	6.225098547E+02	5.040000000E-03	0.000000000E+00	-1.000000000E+00
	-2	-1	0	0	0	501	-0.000000000E+00	-0.000000000E+00	-1.074174057E+03	1.074174057E+03	2.550000000E-03	0.000000000E+00	1.000000000E+00
	-24	1	1	2	0	0	6.656112874E+02	-3.626896124E+02	8.644616818E+01	7.670899616E+02	7.982435975E+01	0.000000000E+00	-1.000000000E+00
	9000005	1	1	2	0	0	-6.656112874E+02	3.626896124E+02	-5.381103702E+02	9.295939497E+02	1.000000000E-05	0.000000000E+00	0.000000000E+00

</event>
<event>
	4	1	3.267126300E-02	1.545175000E+03	7.818608000E-03	8.854956000E-02
	1	-1	0	0	501	0	0.000000000E+00	0.000000000E+00	1.457426558E+03	1.457426558E+03	5.040000000E-03	0.000000000E+00	-1.000000000E+00
	-2	-1	0	0	0	501	-0.000000000E+00	-0.000000000E+00	-4.095516111E+02	4.095516111E+02	2.550000000E-03	0.000000000E+00	1.000000000E+00
	-24	1	1	2	0	0	-6.607553023E+02	-2.605608692E+02	8.862408818E+02	1.138544845E+03	7.982435975E+01	0.000000000E+00	-1.000000000E+00
	9000005	1	1	2	0	0	6.607553023E+02	2.605608692E+02	1.616340651E+02	7.284333237E+02	1.000000000E-05	0.000000000E+00	0.000000000E+00

</event>
<event>
	4	1	3.267126300E-02	2.078674000E+03	7.818608000E-03	8.570696000E-02
	1	-1	0	0	501	0	0.000000000E+00	0.000000000E+00	1.516506073E+03	1.516506073E+03	5.040000000E-03	0.000000000E+00	-1.000000000E+00
	-2	-1	0	0	0	501	-0.000000000E+00	-0.000000000E+00	-7.123090073E+02	7.123090074E+02	2.550000000E-03	0.000000000E+00	1.000000000E+00
	-24	1	1	2	0	0	-8.371724052E+01	-7.702229819E+02	-3.376791199E+02	8.489117355E+02	7.982435975E+01	0.000000000E+00	1.000000000E+00
	9000005	1	1	2	0	0	8.371724052E+01	7.702229819E+02	1.141876186E+03	1.379903345E+03	1.000000000E-05	0.000000000E+00	0.000000000E+00

</event>
<event>
	4	1	3.267126300E-02	2.192485000E+03	7.818608000E-03	8.521562000E-02
	-2	-1	0	0	0	501	-0.000000000E+00	0.000000000E+00	8.768995219E+02	8.768995219E+02	5.040000000E-03	0.000000000E+00	1.000000000E+00
	1	-1	0	0	501	0	0.000000000E+00	-0.000000000E+00	-1.370450854E+03	1.370450854E+03	2.550000000E-03	0.000000000E+00	-1.000000000E+00
	-24	1	1	2	0	0	-8.170607408E+02	1.693752083E+02	4.793550063E+02	9.656238221E+02	7.982435975E+01	0.000000000E+00	1.000000000E+00
	9000005	1	1	2	0	0	8.170607408E+02	-1.693752083E+02	-9.729063383E+02	1.281726554E+03	1.000000000E-05	0.000000000E+00	0.000000000E+00

</event>
<event>
	4	1	3.267126300E-02	2.515415000E+03	7.818608000E-03	8.397515000E-02
	-2	-1	0	0	0	501	-0.000000000E+00	0.000000000E+00	4.322008558E+02	4.322008558E+02	5.040000000E-03	0.000000000E+00	1.000000000E+00
	1	-1	0	0	501	0	0.000000000E+00	-0.000000000E+00	-3.659936406E+03	3.659936406E+03	2.550000000E-03	0.000000000E+00	-1.000000000E+00
	-24	1	1	2	0	0	-7.854758468E+02	1.824658870E+02	-3.182976042E+03	3.284505217E+03	7.982435975E+01	0.000000000E+00	-1.000000000E+00
	9000005	1	1	2	0	0	7.854758468E+02	-1.824658870E+02	-4.475950764E+01	8.076320446E+02	1.000000000E-05	0.000000000E+00	0.000000000E+00

</event>
<event>
	4	1	3.267126300E-02	1.568425000E+03	7.818608000E-03	8.840184000E-02
	-2	-1	0	0	0	501	-0.000000000E+00	0.000000000E+00	3.170044897E+02	3.170044898E+02	5.040000000E-03	0.000000000E+00	1.000000000E+00
	1	-1	0	0	501	0	0.000000000E+00	-0.000000000E+00	-1.940002628E+03	1.940002628E+03	2.550000000E-03	0.000000000E+00	-1.000000000E+00
	-24	1	1	2	0	0	3.872261373E+02	5.842553879E+02	-3.140506891E+02	7.722034728E+02	7.982435975E+01	0.000000000E+00	1.000000000E+00
	9000005	1	1	2	0	0	-3.872261373E+02	-5.842553879E+02	-1.308947449E+03	1.484803645E+03	1.000000000E-05	0.000000000E+00	0.000000000E+00

</event>
<event>
	4	1	3.267126300E-02	1.462399000E+03	7.818608000E-03	8.909849000E-02
	1	-1	0	0	501	0	0.000000000E+00	0.000000000E+00	1.663095685E+03	1.663095685E+03	5.040000000E-03	0.000000000E+00	-1.000000000E+00
	-2	-1	0	0	0	501	-0.000000000E+00	-0.000000000E+00	-3.214804223E+02	3.214804223E+02	2.550000000E-03	0.000000000E+00	1.000000000E+00
	-24	1	1	2	0	0	5.486223682E+02	-4.644128841E+02	5.076801932E+02	8.836158310E+02	7.982435975E+01	0.000000000E+00	1.000000000E+00
	9000005	1	1	2	0	0	-5.486223682E+02	4.644128841E+02	8.339350693E+02	1.100960276E+03	1.000000000E-05	0.000000000E+00	0.000000000E+00

</event>
<event>
	4	1	3.267126300E-02	1.637069000E+03	7.818608000E-03	8.798093000E-02
	-2	-1	0	0	0	501	-0.000000000E+00	0.000000000E+00	2.753135404E+02	2.753135404E+02	5.040000000E-03	0.000000000E+00	1.000000000E+00
	1	-1	0	0	501	0	0.000000000E+00	-0.000000000E+00	-2.433585270E+03	2.433585270E+03	2.550000000E-03	0.000000000E+00	-1.000000000E+00
	-24	1	1	2	0	0	-4.461408161E+02	-5.550821018E+02	-4.205174115E+02	8.308818143E+02	7.982435975E+01	0.000000000E+00	1.000000000E+00
	9000005	1	1	2	0	0	4.461408161E+02	5.550821018E+02	-1.737754318E+03	1.878016996E+03	1.000000000E-05	0.000000000E+00	0.000000000E+00

</event>
<event>
	4	1	3.267126300E-02	1.594804000E+03	7.818608000E-03	8.823746000E-02
	-2	-1	0	0	0	501	-0.000000000E+00	0.000000000E+00	6.806730864E+02	6.806730864E+02	5.040000000E-03	0.000000000E+00	1.000000000E+00
	1	-1	0	0	501	0	0.000000000E+00	-0.000000000E+00	-9.341489892E+02	9.341489892E+02	2.550000000E-03	0.000000000E+00	-1.000000000E+00
	-24	1	1	2	0	0	6.112678044E+02	-4.590171064E+02	9.552885917E+01	7.744951414E+02	7.982435975E+01	0.000000000E+00	-1.000000000E+00
	9000005	1	1	2	0	0	-6.112678044E+02	4.590171064E+02	-3.490047619E+02	8.403269343E+02	1.000000000E-05	0.000000000E+00	0.000000000E+00

</event>
<event>
	4	1	3.267126300E-02	1.903677000E+03	7.818608000E-03	8.653028000E-02
	1	-1	0	0	501	0	0.000000000E+00	0.000000000E+00	1.025391628E+03	1.025391628E+03	5.040000000E-03	0.000000000E+00	-1.000000000E+00
	-2	-1	0	0	0	501	-0.000000000E+00	-0.000000000E+00	-8.835612354E+02	8.835612354E+02	2.550000000E-03	0.000000000E+00	1.000000000E+00
	-24	1	1	2	0	0	9.085344147E+02	2.418870298E+02	2.087851205E+02	9.663887793E+02	7.982435975E+01	0.000000000E+00	-1.000000000E+00
	9000005	1	1	2	0	0	-9.085344147E+02	-2.418870298E+02	-6.695472755E+01	9.425640845E+02	1.000000000E-05	0.000000000E+00	0.000000000E+00

</event>
<event>
	4	1	3.267126300E-02	3.976188000E+03	7.818608000E-03	8.009368000E-02
	-2	-1	0	0	0	501	-0.000000000E+00	0.000000000E+00	2.361220537E+03	2.361220537E+03	5.040000000E-03	0.000000000E+00	1.000000000E+00
	1	-1	0	0	501	0	0.000000000E+00	-0.000000000E+00	-1.673929586E+03	1.673929586E+03	2.550000000E-03	0.000000000E+00	-1.000000000E+00
	-24	1	1	2	0	0	9.564308441E+02	4.915772758E+02	2.039770300E+03	2.307258759E+03	7.982435975E+01	0.000000000E+00	1.000000000E+00
	9000005	1	1	2	0	0	-9.564308441E+02	-4.915772758E+02	-1.352479348E+03	1.727891364E+03	1.000000000E-05	0.000000000E+00	0.000000000E+00

</event>
<event>
	4	1	3.267126300E-02	1.978385000E+03	7.818608000E-03	8.616793000E-02
	1	-1	0	0	501	0	0.000000000E+00	0.000000000E+00	2.550265505E+03	2.550265505E+03	5.040000000E-03	0.000000000E+00	-1.000000000E+00
	-2	-1	0	0	0	501	-0.000000000E+00	-0.000000000E+00	-3.836863018E+02	3.836863018E+02	2.550000000E-03	0.000000000E+00	1.000000000E+00
	-24	1	1	2	0	0	3.747806745E+01	-6.837558153E+02	2.140376485E+03	2.248668506E+03	7.982435975E+01	0.000000000E+00	-1.000000000E+00
	9000005	1	1	2	0	0	-3.747806745E+01	6.837558153E+02	2.620271789E+01	6.852833013E+02	1.000000000E-05	0.000000000E+00	0.000000000E+00

</event>
<event>
	4	1	3.267126300E-02	2.316900000E+03	7.818608000E-03	8.471287000E-02
	-2	-1	0	0	0	501	-0.000000000E+00	0.000000000E+00	9.730331108E+02	9.730331108E+02	5.040000000E-03	0.000000000E+00	1.000000000E+00
	1	-1	0	0	501	0	0.000000000E+00	-0.000000000E+00	-1.379199603E+03	1.379199603E+03	2.550000000E-03	0.000000000E+00	-1.000000000E+00
	-24	1	1	2	0	0	1.028725029E+03	5.025037662E+02	-3.733220783E+02	1.206866407E+03	7.982435975E+01	0.000000000E+00	1.000000000E+00
	9000005	1	1	2	0	0	-1.028725029E+03	-5.025037662E+02	-3.284441344E+01	1.145366307E+03	1.000000000E-05	0.000000000E+00	0.000000000E+00

</event>
<event>
	4	1	3.267126300E-02	1.305354000E+03	7.818608000E-03	9.025330000E-02
	-2	-1	0	0	0	501	-0.000000000E+00	0.000000000E+00	2.630884092E+02	2.630884092E+02	5.040000000E-03	0.000000000E+00	1.000000000E+00
	1	-1	0	0	501	0	0.000000000E+00	-0.000000000E+00	-1.619180232E+03	1.619180232E+03	2.550000000E-03	0.000000000E+00	-1.000000000E+00
	-24	1	1	2	0	0	-5.895938620E+02	-2.284146673E+02	-8.993290121E+02	1.102251688E+03	7.982435975E+01	0.000000000E+00	-1.000000000E+00
	9000005	1	1	2	0	0	5.895938620E+02	2.284146673E+02	-4.567628103E+02	7.800169532E+02	1.000000000E-05	0.000000000E+00	0.000000000E+00

</event>
<event>
	4	1	3.267126300E-02	1.439250000E+03	7.818608000E-03	8.925887000E-02
	1	-1	0	0	501	0	0.000000000E+00	0.000000000E+00	5.278011316E+02	5.278011316E+02	5.040000000E-03	0.000000000E+00	-1.000000000E+00
	-2	-1	0	0	0	501	-0.000000000E+00	-0.000000000E+00	-9.811657529E+02	9.811657529E+02	2.550000000E-03	0.000000000E+00	1.000000000E+00
	-24	1	1	2	0	0	-6.265474165E+02	-1.889996510E+02	-5.355509015E+02	8.493934482E+02	7.982435975E+01	0.000000000E+00	1.000000000E+00
	9000005	1	1	2	0	0	6.265474165E+02	1.889996510E+02	8.218628017E+01	6.595734363E+02	1.000000000E-05	0.000000000E+00	0.000000000E+00

</event>
<event>
	4	1	3.267126300E-02	1.501688000E+03	7.818608000E-03	8.883331000E-02
	-2	-1	0	0	0	501	-0.000000000E+00	0.000000000E+00	9.593295779E+02	9.593295779E+02	5.040000000E-03	0.000000000E+00	1.000000000E+00
	1	-1	0	0	501	0	0.000000000E+00	-0.000000000E+00	-5.876675130E+02	5.876675130E+02	2.550000000E-03	0.000000000E+00	-1.000000000E+00
	-24	1	1	2	0	0	-6.816657285E+02	-9.835672335E+00	-1.325323874E+02	6.990720048E+02	7.982435975E+01	0.000000000E+00	-1.000000000E+00
	9000005	1	1	2	0	0	6.816657285E+02	9.835672335E+00	5.041944524E+02	8.479250861E+02	1.000000000E-05	0.000000000E+00	0.000000000E+00

</event>
<event>
	4	1	3.267126300E-02	2.717028000E+03	7.818608000E-03	8.329501000E-02
	3	-1	0	0	501	0	0.000000000E+00	0.000000000E+00	1.565849933E+03	1.565849936E+03	1.010000000E-01	0.000000000E+00	-1.000000000E+00
	-4	-1	0	0	0	501	-0.000000000E+00	-0.000000000E+00	-1.178631466E+03	1.178632150E+03	1.270000000E+00	0.000000000E+00	1.000000000E+00
	-24	1	1	2	0	0	-5.233459179E+02	1.037144975E+03	9.028779698E+02	1.473472499E+03	7.982435975E+01	0.000000000E+00	-1.000000000E+00
	9000005	1	1	2	0	0	5.233459179E+02	-1.037144975E+03	-5.156595029E+02	1.271009587E+03	1.000000000E-05	0.000000000E+00	0.000000000E+00

</event>
<event>
	4	1	3.267126300E-02	2.128875000E+03	7.818608000E-03	8.548630000E-02
	-2	-1	0	0	0	501	-0.000000000E+00	0.000000000E+00	1.364655685E+03	1.364655685E+03	5.040000000E-03	0.000000000E+00	1.000000000E+00
	1	-1	0	0	501	0	0.000000000E+00	-0.000000000E+00	-8.302656023E+02	8.302656023E+02	2.550000000E-03	0.000000000E+00	-1.000000000E+00
	-24	1	1	2	0	0	-6.317115122E+02	1.053242207E+02	-6.070942366E+02	8.860518983E+02	7.982435975E+01	0.000000000E+00	-1.000000000E+00
	9000005	1	1	2	0	0	6.317115122E+02	-1.053242207E+02	1.141484319E+03	1.308869389E+03	1.000000000E-05	0.000000000E+00	0.000000000E+00

</event>
<event>
	4	1	3.267126300E-02	1.411521000E+03	7.818608000E-03	8.945521000E-02
	1	-1	0	0	501	0	0.000000000E+00	0.000000000E+00	1.463315331E+03	1.463315331E+03	5.040000000E-03	0.000000000E+00	-1.000000000E+00
	-2	-1	0	0	0	501	-0.000000000E+00	-0.000000000E+00	-3.403898980E+02	3.403898980E+02	2.550000000E-03	0.000000000E+00	1.000000000E+00
	-24	1	1	2	0	0	6.164386568E+02	-2.098417119E+02	9.034790463E+02	1.116546675E+03	7.982435975E+01	0.000000000E+00	-1.000000000E+00
	9000005	1	1	2	0	0	-6.164386568E+02	2.098417119E+02	2.194463864E+02	6.871585539E+02	1.000000000E-05	0.000000000E+00	0.000000000E+00

</event>
<event>
	4	1	3.267126300E-02	1.267904000E+03	7.818608000E-03	9.055412000E-02
	1	-1	0	0	501	0	0.000000000E+00	0.000000000E+00	1.890692559E+03	1.890692559E+03	5.040000000E-03	0.000000000E+00	-1.000000000E+00
	-2	-1	0	0	0	501	-0.000000000E+00	-0.000000000E+00	-2.125652036E+02	2.125652036E+02	2.550000000E-03	0.000000000E+00	1.000000000E+00
	-24	1	1	2	0	0	-2.781793614E+02	-5.326798851E+02	1.163983874E+03	1.312387902E+03	7.982435975E+01	0.000000000E+00	-1.000000000E+00
	9000005	1	1	2	0	0	2.781793614E+02	5.326798851E+02	5.141434807E+02	7.908698603E+02	1.000000000E-05	0.000000000E+00	0.000000000E+00

</event>
<event>
	4	1	3.267126300E-02	2.193752000E+03	7.818608000E-03	8.521033000E-02
	1	-1	0	0	501	0	0.000000000E+00	0.000000000E+00	3.615034344E+03	3.615034344E+03	5.040000000E-03	0.000000000E+00	-1.000000000E+00
	-2	-1	0	0	0	501	-0.000000000E+00	-0.000000000E+00	-3.328147835E+02	3.328147835E+02	2.550000000E-03	0.000000000E+00	1.000000000E+00
	-24	1	1	2	0	0	3.996863966E+02	4.655976867E+02	1.028927205E+01	6.188765782E+02	7.982435975E+01	0.000000000E+00	1.000000000E+00
	9000005	1	1	2	0	0	-3.996863966E+02	-4.655976867E+02	3.271930289E+03	3.328972549E+03	1.000000000E-05	0.000000000E+00	0.000000000E+00

</event>
<event>
	4	1	3.267126300E-02	3.553230000E+03	7.818608000E-03	8.101290000E-02
	1	-1	0	0	501	0	0.000000000E+00	0.000000000E+00	2.341119568E+03	2.341119568E+03	5.040000000E-03	0.000000000E+00	-1.000000000E+00
	-2	-1	0	0	0	501	-0.000000000E+00	-0.000000000E+00	-1.348226910E+03	1.348226910E+03	2.550000000E-03	0.000000000E+00	1.000000000E+00
	-24	1	1	2	0	0	-3.825905288E+02	1.632411132E+03	-1.105433752E+02	1.682181139E+03	7.982435975E+01	0.000000000E+00	-1.000000000E+00
	9000005	1	1	2	0	0	3.825905288E+02	-1.632411132E+03	1.103436033E+03	2.007165339E+03	1.000000000E-05	0.000000000E+00	0.000000000E+00

</event>
<event>
	4	1	3.267126300E-02	1.453031000E+03	7.818608000E-03	8.916302000E-02
	-2	-1	0	0	0	501	-0.000000000E+00	0.000000000E+00	2.839680870E+02	2.839680870E+02	5.040000000E-03	0.000000000E+00	1.000000000E+00
	1	-1	0	0	501	0	0.000000000E+00	-0.000000000E+00	-1.858746460E+03	1.858746460E+03	2.550000000E-03	0.000000000E+00	-1.000000000E+00
	-24	1	1	2	0	0	7.170165983E+02	-6.094194515E+01	-6.680125416E+02	9.851088301E+02	7.982435975E+01	0.000000000E+00	-1.000000000E+00
	9000005	1	1	2	0	0	-7.170165983E+02	6.094194515E+01	-9.067658315E+02	1.157605717E+03	1.000000000E-05	0.000000000E+00	0.000000000E+00

</event>
<event>
	4	1	3.267126300E-02	1.423001000E+03	7.818608000E-03	8.937335000E-02
	-2	-1	0	0	0	501	-0.000000000E+00	0.000000000E+00	1.159828526E+03	1.159828526E+03	5.040000000E-03	0.000000000E+00	1.000000000E+00
	1	-1	0	0	501	0	0.000000000E+00	-0.000000000E+00	-4.364723001E+02	4.364723001E+02	2.550000000E-03	0.000000000E+00	-1.000000000E+00
	-24	1	1	2	0	0	-9.521370269E+01	-6.962466829E+02	2.550607539E+02	7.518330993E+02	7.982435975E+01	0.000000000E+00	-1.000000000E+00
	9000005	1	1	2	0	0	9.521370269E+01	6.962466829E+02	4.682954724E+02	8.444677271E+02	1.000000000E-05	0.000000000E+00	0.000000000E+00

</event>
<event>
	4	1	3.267126300E-02	1.425153000E+03	7.818608000E-03	8.935810000E-02
	1	-1	0	0	501	0	0.000000000E+00	0.000000000E+00	9.073063468E+02	9.073063468E+02	5.040000000E-03	0.000000000E+00	-1.000000000E+00
	-2	-1	0	0	0	501	-0.000000000E+00	-0.000000000E+00	-5.596400893E+02	5.596400893E+02	2.550000000E-03	0.000000000E+00	1.000000000E+00
	-24	1	1	2	0	0	-9.524627014E+01	-6.938092126E+02	5.197539902E+01	7.067647741E+02	7.982435975E+01	0.000000000E+00	-1.000000000E+00
	9000005	1	1	2	0	0	9.524627014E+01	6.938092126E+02	2.956908585E+02	7.601816620E+02	1.000000000E-05	0.000000000E+00	0.000000000E+00

</event>
<event>
	4	1	3.267126300E-02	1.531134000E+03	7.818608000E-03	8.864009000E-02
	-2	-1	0	0	0	501	-0.000000000E+00	0.000000000E+00	6.124120115E+02	6.124120115E+02	5.040000000E-03	0.000000000E+00	1.000000000E+00
	1	-1	0	0	501	0	0.000000000E+00	-0.000000000E+00	-9.570235502E+02	9.570235502E+02	2.550000000E-03	0.000000000E+00	-1.000000000E+00
	-24	1	1	2	0	0	7.264192225E+02	2.580857974E+01	-4.121982456E+02	8.394225942E+02	7.982435975E+01	0.000000000E+00	1.000000000E+00
	9000005	1	1	2	0	0	-7.264192225E+02	-2.580857974E+01	6.758670687E+01	7.300129674E+02	1.000000000E-05	0.000000000E+00	0.000000000E+00

</event>
<event>
	4	1	3.267126300E-02	1.510457000E+03	7.818608000E-03	8.877529000E-02
	1	-1	0	0	501	0	0.000000000E+00	0.000000000E+00	3.245255214E+03	3.245255215E+03	5.040000000E-03	0.000000000E+00	-1.000000000E+00
	-2	-1	0	0	0	501	-0.000000000E+00	-0.000000000E+00	-1.757550931E+02	1.757550931E+02	2.550000000E-03	0.000000000E+00	1.000000000E+00
	-24	1	1	2	0	0	-2.265581222E+02	-6.457502848E+02	2.251185352E+03	2.354257724E+03	7.982435975E+01	0.000000000E+00	1.000000000E+00
	9000005	1	1	2	0	0	2.265581222E+02	6.457502848E+02	8.183147695E+02	1.066752584E+03	1.000000000E-05	0.000000000E+00	0.000000000E+00

</event>
<event>
	4	1	3.267126300E-02	1.282303000E+03	7.818608000E-03	9.043718000E-02
	1	-1	0	0	501	0	0.000000000E+00	0.000000000E+00	6.651018086E+02	6.651018087E+02	5.040000000E-03	0.000000000E+00	-1.000000000E+00
	-2	-1	0	0	0	501	-0.000000000E+00	-0.000000000E+00	-6.180638692E+02	6.180638692E+02	2.550000000E-03	0.000000000E+00	1.000000000E+00
	-24	1	1	2	0	0	5.818228649E+02	2.616924245E+02	5.354402064E+01	6.451663830E+02	7.982435975E+01	0.000000000E+00	-1.000000000E+00
	9000005	1	1	2	0	0	-5.818228649E+02	-2.616924245E+02	-6.506081230E+00	6.379992949E+02	1.000000000E-05	0.000000000E+00	0.000000000E+00

</event>
<event>
	4	1	3.267126300E-02	1.864908000E+03	7.818608000E-03	8.672524000E-02
	-2	-1	0	0	0	501	-0.000000000E+00	0.000000000E+00	2.229612150E+02	2.229612150E+02	5.040000000E-03	0.000000000E+00	1.000000000E+00
	1	-1	0	0	501	0	0.000000000E+00	-0.000000000E+00	-3.899647644E+03	3.899647644E+03	2.550000000E-03	0.000000000E+00	-1.000000000E+00
	-24	1	1	2	0	0	-8.295731807E+02	8.179693722E+01	-9.264898424E+02	1.248854578E+03	7.982435975E+01	0.000000000E+00	1.000000000E+00
	9000005	1	1	2	0	0	8.295731807E+02	-8.179693722E+01	-2.750196586E+03	2.873754281E+03	1.000000000E-05	0.000000000E+00	0.000000000E+00

</event>
<event>
	4	1	3.267126300E-02	3.526312000E+03	7.818608000E-03	8.107582000E-02
	-2	-1	0	0	0	501	-0.000000000E+00	0.000000000E+00	1.462748810E+03	1.462748810E+03	5.040000000E-03	0.000000000E+00	1.000000000E+00
	1	-1	0	0	501	0	0.000000000E+00	-0.000000000E+00	-2.125258912E+03	2.125258912E+03	2.550000000E-03	0.000000000E+00	-1.000000000E+00
	-24	1	1	2	0	0	-1.410082344E+03	2.792696332E+02	7.058276147E+02	1.603398982E+03	7.982435975E+01	0.000000000E+00	1.000000000E+00
	9000005	1	1	2	0	0	1.410082344E+03	-2.792696332E+02	-1.368337717E+03	1.984608741E+03	1.000000000E-05	0.000000000E+00	0.000000000E+00

</event>
<event>
	4	1	3.267126300E-02	1.276591000E+03	7.818608000E-03	9.048337000E-02
	-2	-1	0	0	0	501	-0.000000000E+00	0.000000000E+00	3.295461560E+02	3.295461560E+02	5.040000000E-03	0.000000000E+00	1.000000000E+00
	1	-1	0	0	501	0	0.000000000E+00	-0.000000000E+00	-1.236309908E+03	1.236309908E+03	2.550000000E-03	0.000000000E+00	-1.000000000E+00
	-24	1	1	2	0	0	5.681626392E+02	-2.495008721E+02	-2.852728319E+02	6.876132538E+02	7.982435975E+01	0.000000000E+00	1.000000000E+00
	9000005	1	1	2	0	0	-5.681626392E+02	2.495008721E+02	-6.214909197E+02	8.782428098E+02	1.000000000E-05	0.000000000E+00	0.000000000E+00

</event>
<event>
	4	1	3.267126300E-02	1.964176000E+03	7.818608000E-03	8.623555000E-02
	-2	-1	0	0	0	501	-0.000000000E+00	0.000000000E+00	1.529080626E+03	1.529080626E+03	5.040000000E-03	0.000000000E+00	1.000000000E+00
	1	-1	0	0	501	0	0.000000000E+00	-0.000000000E+00	-6.307691724E+02	6.307691724E+02	2.550000000E-03	0.000000000E+00	-1.000000000E+00
	-24	1	1	2	0	0	8.513768454E+02	-2.792244280E+02	8.876860169E+02	1.263790808E+03	7.982435975E+01	0.000000000E+00	1.000000000E+00
	9000005	1	1	2	0	0	-8.513768454E+02	2.792244280E+02	1.062543670E+01	8.960589902E+02	1.000000000E-05	0.000000000E+00	0.000000000E+00

</event>
<event>
	4	1	3.267126300E-02	1.691890000E+03	7.818608000E-03	8.766003000E-02
	1	-1	0	0	501	0	0.000000000E+00	0.000000000E+00	1.084386387E+03	1.084386387E+03	5.040000000E-03	0.000000000E+00	-1.000000000E+00
	-2	-1	0	0	0	501	-0.000000000E+00	-0.000000000E+00	-6.599336774E+02	6.599336774E+02	2.550000000E-03	0.000000000E+00	1.000000000E+00
	-24	1	1	2	0	0	3.547447155E+02	5.515178444E+02	7.606040991E+02	1.007425565E+03	7.982435975E+01	0.000000000E+00	-1.000000000E+00
	9000005	1	1	2	0	0	-3.547447155E+02	-5.515178444E+02	-3.361513895E+02	7.368944989E+02	1.000000000E-05	0.000000000E+00	0.000000000E+00

</event>
<event>
	4	1	3.267126300E-02	1.424903000E+03	7.818608000E-03	8.935987000E-02
	-2	-1	0	0	0	501	-0.000000000E+00	0.000000000E+00	5.112738771E+02	5.112738771E+02	5.040000000E-03	0.000000000E+00	1.000000000E+00
	1	-1	0	0	501	0	0.000000000E+00	-0.000000000E+00	-9.927895057E+02	9.927895057E+02	2.550000000E-03	0.000000000E+00	-1.000000000E+00
	-24	1	1	2	0	0	6.322890454E+02	3.232531303E+02	-2.297425777E+02	7.506234766E+02	7.982435975E+01	0.000000000E+00	-1.000000000E+00
	9000005	1	1	2	0	0	-6.322890454E+02	-3.232531303E+02	-2.517730509E+02	7.534399063E+02	1.000000000E-05	0.000000000E+00	0.000000000E+00

</event>
<event>
	4	1	3.267126300E-02	2.557550000E+03	7.818608000E-03	8.382765000E-02
	-2	-1	0	0	0	501	-0.000000000E+00	0.000000000E+00	1.113502341E+03	1.113502341E+03	5.040000000E-03	0.000000000E+00	1.000000000E+00
	1	-1	0	0	501	0	0.000000000E+00	-0.000000000E+00	-1.468578232E+03	1.468578232E+03	2.550000000E-03	0.000000000E+00	-1.000000000E+00
	-24	1	1	2	0	0	-8.749651612E+02	4.466446861E+02	6.468388546E+02	1.178909641E+03	7.982435975E+01	0.000000000E+00	1.000000000E+00
	9000005	1	1	2	0	0	8.749651612E+02	-4.466446861E+02	-1.001914746E+03	1.403170933E+03	1.000000000E-05	0.000000000E+00	0.000000000E+00

</event>
<event>
	4	1	3.267126300E-02	1.794927000E+03	7.818608000E-03	8.709002000E-02
	-2	-1	0	0	0	501	-0.000000000E+00	0.000000000E+00	1.267336932E+03	1.267336932E+03	5.040000000E-03	0.000000000E+00	1.000000000E+00
	1	-1	0	0	501	0	0.000000000E+00	-0.000000000E+00	-6.355382867E+02	6.355382868E+02	2.550000000E-03	0.000000000E+00	-1.000000000E+00
	-24	1	1	2	0	0	6.357565431E+02	-1.885891559E+02	-3.217703304E+02	7.413908051E+02	7.982435975E+01	0.000000000E+00	-1.000000000E+00
	9000005	1	1	2	0	0	-6.357565431E+02	1.885891559E+02	9.535689754E+02	1.161484414E+03	1.000000000E-05	0.000000000E+00	0.000000000E+00

</event>
<event>
	4	1	3.267126300E-02	1.592394000E+03	7.818608000E-03	8.825234000E-02
	-2	-1	0	0	0	501	-0.000000000E+00	0.000000000E+00	6.522573331E+02	6.522573331E+02	5.040000000E-03	0.000000000E+00	1.000000000E+00
	1	-1	0	0	501	0	0.000000000E+00	-0.000000000E+00	-9.719016103E+02	9.719016104E+02	2.550000000E-03	0.000000000E+00	-1.000000000E+00
	-24	1	1	2	0	0	-2.731530469E+02	-5.486370662E+02	3.549586536E+02	7.127291152E+02	7.982435975E+01	0.000000000E+00	1.000000000E+00
	9000005	1	1	2	0	0	2.731530469E+02	5.486370662E+02	-6.746029309E+02	9.114298282E+02	1.000000000E-05	0.000000000E+00	0.000000000E+00

</event>
<event>
	4	1	3.267126300E-02	1.483624000E+03	7.818608000E-03	8.895416000E-02
	1	-1	0	0	501	0	0.000000000E+00	0.000000000E+00	4.776193958E+02	4.776193958E+02	5.040000000E-03	0.000000000E+00	-1.000000000E+00
	-2	-1	0	0	0	501	-0.000000000E+00	-0.000000000E+00	-1.152141536E+03	1.152141536E+03	2.550000000E-03	0.000000000E+00	1.000000000E+00
	-24	1	1	2	0	0	-7.198078117E+02	-1.214159373E+02	-4.693168957E+02	8.714903285E+02	7.982435975E+01	0.000000000E+00	1.000000000E+00
	9000005	1	1	2	0	0	7.198078117E+02	1.214159373E+02	-2.052052447E+02	7.582706035E+02	1.000000000E-05	0.000000000E+00	0.000000000E+00

</event>
<event>
	4	1	3.267126300E-02	2.213305000E+03	7.818608000E-03	8.512911000E-02
	1	-1	0	0	501	0	0.000000000E+00	0.000000000E+00	1.796406196E+03	1.796406196E+03	5.040000000E-03	0.000000000E+00	-1.000000000E+00
	-2	-1	0	0	0	501	-0.000000000E+00	-0.000000000E+00	-6.817385807E+02	6.817385807E+02	2.550000000E-03	0.000000000E+00	1.000000000E+00
	-24	1	1	2	0	0	-2.829364963E+00	-6.948106946E+02	-4.042779507E+02	8.078257835E+02	7.982435975E+01	0.000000000E+00	1.000000000E+00
	9000005	1	1	2	0	0	2.829364963E+00	6.948106946E+02	1.518945566E+03	1.670318993E+03	1.000000000E-05	0.000000000E+00	0.000000000E+00

</event>
<event>
	4	1	3.267126300E-02	1.665777000E+03	7.818608000E-03	8.781127000E-02
	1	-1	0	0	501	0	0.000000000E+00	0.000000000E+00	3.101579710E+02	3.101579711E+02	5.040000000E-03	0.000000000E+00	-1.000000000E+00
	-2	-1	0	0	0	501	-0.000000000E+00	-0.000000000E+00	-2.236613043E+03	2.236613043E+03	2.550000000E-03	0.000000000E+00	1.000000000E+00
	-24	1	1	2	0	0	-3.366952967E+02	6.516174795E+02	-1.562587391E+03	1.728010517E+03	7.982435975E+01	0.000000000E+00	1.000000000E+00
	9000005	1	1	2	0	0	3.366952967E+02	-6.516174795E+02	-3.638676802E+02	8.187604968E+02	1.000000000E-05	0.000000000E+00	0.000000000E+00

</event>
<event>
	4	1	3.267126300E-02	1.299122000E+03	7.818608000E-03	9.030262000E-02
	1	-1	0	0	501	0	0.000000000E+00	0.000000000E+00	7.155511963E+02	7.155511963E+02	5.040000000E-03	0.000000000E+00	-1.000000000E+00
	-2	-1	0	0	0	501	-0.000000000E+00	-0.000000000E+00	-5.896566777E+02	5.896566777E+02	2.550000000E-03	0.000000000E+00	1.000000000E+00
	-24	1	1	2	0	0	-5.780281015E+02	-2.241098521E+02	2.495474782E+02	6.730435233E+02	7.982435975E+01	0.000000000E+00	-1.000000000E+00
	9000005	1	1	2	0	0	5.780281015E+02	2.241098521E+02	-1.236529596E+02	6.321643508E+02	1.000000000E-05	0.000000000E+00	0.000000000E+00

</event>
<event>
	4	1	3.267126300E-02	2.173110000E+03	7.818608000E-03	8.529704000E-02
	-2	-1	0	0	0	501	-0.000000000E+00	0.000000000E+00	7.243514423E+02	7.243514423E+02	5.040000000E-03	0.000000000E+00	1.000000000E+00
	1	-1	0	0	501	0	0.000000000E+00	-0.000000000E+00	-1.629874362E+03	1.629874362E+03	2.550000000E-03	0.000000000E+00	-1.000000000E+00
	-24	1	1	2	0	0	-3.780615567E+02	8.032510720E+02	-1.129291536E+03	1.438684861E+03	7.982435975E+01	0.000000000E+00	-1.000000000E+00
	9000005	1	1	2	0	0	3.780615567E+02	-8.032510720E+02	2.237686169E+02	9.155409435E+02	1.000000000E-05	0.000000000E+00	0.000000000E+00

</event>
<event>
	4	1	3.267126300E-02	1.239728000E+03	7.818608000E-03	9.078776000E-02
	1	-1	0	0	501	0	0.000000000E+00	0.000000000E+00	4.878021832E+02	4.878021832E+02	5.040000000E-03	0.000000000E+00	-1.000000000E+00
	-2	-1	0	0	0	501	-0.000000000E+00	-0.000000000E+00	-7.876789301E+02	7.876789301E+02	2.550000000E-03	0.000000000E+00	1.000000000E+00
	-24	1	1	2	0	0	-1.487109252E+02	5.990042866E+02	-1.623386288E+02	6.431538179E+02	7.982435975E+01	0.000000000E+00	1.000000000E+00
	9000005	1	1	2	0	0	1.487109252E+02	-5.990042866E+02	-1.375381181E+02	6.323272954E+02	1.000000000E-05	0.000000000E+00	0.000000000E+00

</event>
<event>
	6	1	3.267126300E-02	1.828484000E+03	7.818608000E-03	8.691297000E-02
	2	-1	0	0	501	0	0.000000000E+00	0.000000000E+00	1.779975825E+03	1.779975825E+03	2.550000000E-03	0.000000000E+00	-1.000000000E+00
	-1	-1	0	0	0	501	-0.000000000E+00	-0.000000000E+00	-4.695785114E+02	4.695785114E+02	5.040000000E-03	0.000000000E+00	1.000000000E+00
	24	2	1	2	0	0	-2.293148848E+01	-9.100076020E+02	7.372622693E+02	1.173857600E+03	7.580450476E+01	0.000000000E+00	0.000000000E+00
	-11	1	3	3	0	0	-3.199631514E-01	-8.373209611E+02	6.748785062E+02	1.075438279E+03	5.110000000E-04	0.000000000E+00	1.000000000E+00
	12	1	3	3	0	0	-2.261152533E+01	-7.268664088E+01	6.238376315E+01	9.841932100E+01	0.000000000E+00	0.000000000E+00	-1.000000000E+00
	9000005	1	1	2	0	0	2.293148848E+01	9.100076020E+02	5.731350439E+02	1.075696736E+03	1.000000000E-05	0.000000000E+00	0.000000000E+00

</event>
<event>
	4	1	3.267126300E-02	1.771515000E+03	7.818608000E-03	8.721596000E-02
	1	-1	0	0	501	0	0.000000000E+00	0.000000000E+00	1.046457761E+03	1.046457761E+03	5.040000000E-03	0.000000000E+00	-1.000000000E+00
	-2	-1	0	0	0	501	-0.000000000E+00	-0.000000000E+00	-7.497349543E+02	7.497349543E+02	2.550000000E-03	0.000000000E+00	1.000000000E+00
	-24	1	1	2	0	0	-5.108661949E+01	8.056341275E+02	-2.165312188E+02	8.395915002E+02	7.982435975E+01	0.000000000E+00	1.000000000E+00
	9000005	1	1	2	0	0	5.108661949E+01	-8.056341275E+02	5.132540257E+02	9.566012152E+02	1.000000000E-05	0.000000000E+00	0.000000000E+00

</event>
<event>
	4	1	3.267126300E-02	1.644385000E+03	7.818608000E-03	8.793735000E-02
	-2	-1	0	0	0	501	-0.000000000E+00	0.000000000E+00	3.798625913E+02	3.798625913E+02	5.040000000E-03	0.000000000E+00	1.000000000E+00
	1	-1	0	0	501	0	0.000000000E+00	-0.000000000E+00	-1.779591615E+03	1.779591615E+03	2.550000000E-03	0.000000000E+00	-1.000000000E+00
	-24	1	1	2	0	0	-3.391017852E+02	5.855213752E+02	-9.260459040E+01	6.875847876E+02	7.982435975E+01	0.000000000E+00	1.000000000E+00
	9000005	1	1	2	0	0	3.391017852E+02	-5.855213752E+02	-1.307124433E+03	1.471869419E+03	1.000000000E-05	0.000000000E+00	0.000000000E+00

</event>
<event>
	4	1	3.267126300E-02	3.098254000E+03	7.818608000E-03	8.216217000E-02
	1	-1	0	0	501	0	0.000000000E+00	0.000000000E+00	1.551852235E+03	1.551852235E+03	5.040000000E-03	0.000000000E+00	-1.000000000E+00
	-2	-1	0	0	0	501	-0.000000000E+00	-0.000000000E+00	-1.546406904E+03	1.546406904E+03	2.550000000E-03	0.000000000E+00	1.000000000E+00
	-24	1	1	2	0	0	2.133049835E+02	1.489845143E+03	-3.598675055E+02	1.549520609E+03	7.982435975E+01	0.000000000E+00	1.000000000E+00
	9000005	1	1	2	0	0	-2.133049835E+02	-1.489845143E+03	3.653128361E+02	1.548738530E+03	1.000000000E-05	0.000000000E+00	0.000000000E+00

</event>
<event>
	4	1	3.267126300E-02	1.943080000E+03	7.818608000E-03	8.633705000E-02
	-4	-1	0	0	0	501	-0.000000000E+00	0.000000000E+00	7.865991438E+02	7.866001691E+02	5.040000000E-03	0.000000000E+00	1.000000000E+00
	1	-1	0	0	501	0	0.000000000E+00	-0.000000000E+00	-1.199962042E+03	1.199962042E+03	1.270000000E+00	0.000000000E+00	-1.000000000E+00
	-24	1	1	2	0	0	-7.153052327E+02	-3.149730165E+02	-7.941968315E+02	1.117134778E+03	7.982435975E+01	0.000000000E+00	-1.000000000E+00
	9000005	1	1	2	0	0	7.153052327E+02	3.149730165E+02	3.808339330E+02	8.694274332E+02	1.000000000E-05	0.000000000E+00	0.000000000E+00

</event>
<event>
	6	1	3.267126300E-02	2.518839000E+03	7.818608000E-03	8.396304000E-02
	-1	-1	0	0	0	501	-0.000000000E+00	0.000000000E+00	1.384674349E+03	1.384674349E+03	2.550000000E-03	0.000000000E+00	1.000000000E+00
	2	-1	0	0	501	0	0.000000000E+00	-0.000000000E+00	-1.145495309E+03	1.145495309E+03	5.040000000E-03	0.000000000E+00	-1.000000000E+00
	24	2	1	2	0	0	4.179102839E+02	-7.391570377E+02	1.052111314E+03	1.354643812E+03	8.437718152E+01	0.000000000E+00	0.000000000E+00
	-11	1	3	3	0	0	3.797688054E+02	-6.216767641E+02	9.246918422E+02	1.177183651E+03	5.110000000E-04	0.000000000E+00	1.000000000E+00
	12	1	3	3	0	0	3.814147847E+01	-1.174802736E+02	1.274194723E+02	1.774601617E+02	0.000000000E+00	0.000000000E+00	-1.000000000E+00
	9000005	1	1	2	0	0	-4.179102839E+02	7.391570377E+02	-8.129322742E+02	1.175525846E+03	1.000000000E-05	0.000000000E+00	0.000000000E+00

</event>
<event>
	4	1	3.267126300E-02	1.373581000E+03	7.818608000E-03	8.973167000E-02
	1	-1	0	0	501	0	0.000000000E+00	0.000000000E+00	1.092329051E+03	1.092329051E+03	5.040000000E-03	0.000000000E+00	-1.000000000E+00
	-2	-1	0	0	0	501	-0.000000000E+00	-0.000000000E+00	-4.318122487E+02	4.318122487E+02	2.550000000E-03	0.000000000E+00	1.000000000E+00
	-24	1	1	2	0	0	2.822681735E+02	5.933655304E+02	5.440678424E+02	8.568195376E+02	7.982435975E+01	0.000000000E+00	1.000000000E+00
	9000005	1	1	2	0	0	-2.822681735E+02	-5.933655304E+02	1.164489602E+02	6.673217625E+02	1.000000000E-05	0.000000000E+00	0.000000000E+00

</event>
<event>
	4	1	3.267126300E-02	1.653461000E+03	7.818608000E-03	8.788362000E-02
	-2	-1	0	0	0	501	-0.000000000E+00	0.000000000E+00	2.421013226E+03	2.421013226E+03	5.040000000E-03	0.000000000E+00	1.000000000E+00
	1	-1	0	0	501	0	0.000000000E+00	-0.000000000E+00	-2.823129125E+02	2.823129126E+02	2.550000000E-03	0.000000000E+00	-1.000000000E+00
	-24	1	1	2	0	0	3.371650138E+02	5.955147903E+02	1.824599715E+03	1.950347190E+03	7.982435975E+01	0.000000000E+00	1.000000000E+00
	9000005	1	1	2	0	0	-3.371650138E+02	-5.955147903E+02	3.141005992E+02	7.529789495E+02	1.000000000E-05	0.000000000E+00	0.000000000E+00

</event>
<event>
	4	1	3.267126300E-02	1.480132000E+03	7.818608000E-03	8.897773000E-02
	1	-1	0	0	501	0	0.000000000E+00	0.000000000E+00	1.578758799E+03	1.578758799E+03	5.040000000E-03	0.000000000E+00	-1.000000000E+00
	-2	-1	0	0	0	501	-0.000000000E+00	-0.000000000E+00	-3.469166077E+02	3.469166077E+02	2.550000000E-03	0.000000000E+00	1.000000000E+00
	-24	1	1	2	0	0	5.518180670E+02	-3.988844442E+02	2.476555669E+02	7.289150754E+02	7.982435975E+01	0.000000000E+00	-1.000000000E+00
	9000005	1	1	2	0	0	-5.518180670E+02	3.988844442E+02	9.841866240E+02	1.196760331E+03	1.000000000E-05	0.000000000E+00	0.000000000E+00

</event>
<event>
	4	1	3.267126300E-02	1.812332000E+03	7.818608000E-03	8.699769000E-02
	1	-1	0	0	501	0	0.000000000E+00	0.000000000E+00	1.603721424E+03	1.603721424E+03	5.040000000E-03	0.000000000E+00	-1.000000000E+00
	-2	-1	0	0	0	501	-0.000000000E+00	-0.000000000E+00	-5.120195565E+02	5.120195565E+02	2.550000000E-03	0.000000000E+00	1.000000000E+00
	-24	1	1	2	0	0	-6.993390615E+02	-3.274326144E+02	-2.725802134E+00	7.763160428E+02	7.982435975E+01	0.000000000E+00	1.000000000E+00
	9000005	1	1	2	0	0	6.993390615E+02	3.274326144E+02	1.094427670E+03	1.339424938E+03	1.000000000E-05	0.000000000E+00	0.000000000E+00

</event>
<event>
	4	1	3.267126300E-02	1.458634000E+03	7.818608000E-03	8.912437000E-02
	1	-1	0	0	501	0	0.000000000E+00	0.000000000E+00	4.263784752E+02	4.263784752E+02	5.040000000E-03	0.000000000E+00	-1.000000000E+00
	-2	-1	0	0	0	501	-0.000000000E+00	-0.000000000E+00	-1.247490355E+03	1.247490355E+03	2.550000000E-03	0.000000000E+00	1.000000000E+00
	-24	1	1	2	0	0	-2.736854085E+02	6.614623218E+02	-2.653390390E+02	7.676020063E+02	7.982435975E+01	0.000000000E+00	-1.000000000E+00
	9000005	1	1	2	0	0	2.736854085E+02	-6.614623218E+02	-5.557728411E+02	9.062668243E+02	1.000000000E-05	0.000000000E+00	0.000000000E+00

</event>
<event>
	4	1	3.267126300E-02	1.249838000E+03	7.818608000E-03	9.070318000E-02
	-2	-1	0	0	0	501	-0.000000000E+00	0.000000000E+00	6.818476752E+02	6.818476752E+02	5.040000000E-03	0.000000000E+00	1.000000000E+00
	1	-1	0	0	501	0	0.000000000E+00	-0.000000000E+00	-5.727435535E+02	5.727435536E+02	2.550000000E-03	0.000000000E+00	-1.000000000E+00
	-24	1	1	2	0	0	-6.086757905E+02	6.404038645E+01	-5.860185979E+01	6.199947544E+02	7.982435975E+01	0.000000000E+00	-1.000000000E+00
	9000005	1	1	2	0	0	6.086757905E+02	-6.404038645E+01	1.677059815E+02	6.345964744E+02	1.000000000E-05	0.000000000E+00	0.000000000E+00

</event>
<event>
	4	1	3.267126300E-02	1.347388000E+03	7.818608000E-03	8.992808000E-02
	-2	-1	0	0	0	501	-0.000000000E+00	0.000000000E+00	1.608923348E+03	1.608923348E+03	5.040000000E-03	0.000000000E+00	1.000000000E+00
	1	-1	0	0	501	0	0.000000000E+00	-0.000000000E+00	-2.820913916E+02	2.820913917E+02	2.550000000E-03	0.000000000E+00	-1.000000000E+00
	-24	1	1	2	0	0	-5.185627226E+02	3.488890357E+02	1.009671852E+03	1.190142863E+03	7.982435975E+01	0.000000000E+00	1.000000000E+00
	9000005	1	1	2	0	0	5.185627226E+02	-3.488890357E+02	3.171601048E+02	7.008718774E+02	1.000000000E-05	0.000000000E+00	0.000000000E+00

</event>
<event>
	6	1	3.267126300E-02	2.215696000E+03	7.818608000E-03	8.511924000E-02
	2	-1	0	0	501	0	0.000000000E+00	0.000000000E+00	7.742681696E+02	7.742681696E+02	2.550000000E-03	0.000000000E+00	-1.000000000E+00
	-1	-1	0	0	0	501	-0.000000000E+00	-0.000000000E+00	-1.585144203E+03	1.585144203E+03	5.040000000E-03	0.000000000E+00	1.000000000E+00
	24	2	1	2	0	0	4.709213870E+02	-9.948589640E+02	-2.850193716E+02	1.139561341E+03	7.650291791E+01	0.000000000E+00	0.000000000E+00
	-11	1	3	3	0	0	4.482222453E+02	-9.622847017E+02	-2.874530812E+02	1.099783752E+03	5.110000000E-04	0.000000000E+00	1.000000000E+00
	12	1	3	3	0	0	2.269914170E+01	-3.257426228E+01	2.433709542E+00	3.977758840E+01	0.000000000E+00	0.000000000E+00	-1.000000000E+00
	9000005	1	1	2	0	0	-4.709213870E+02	9.948589640E+02	-5.258566620E+02	1.219851032E+03	1.000000000E-05	0.000000000E+00	0.000000000E+00

</event>
<event>
	4	1	3.267126300E-02	1.455396000E+03	7.818608000E-03	8.914668000E-02
	1	-1	0	0	501	0	0.000000000E+00	0.000000000E+00	5.070003318E+02	5.070003318E+02	5.040000000E-03	0.000000000E+00	-1.000000000E+00
	-2	-1	0	0	0	501	-0.000000000E+00	-0.000000000E+00	-1.044466227E+03	1.044466227E+03	2.550000000E-03	0.000000000E+00	1.000000000E+00
	-24	1	1	2	0	0	5.412422007E+02	3.687949841E+02	6.316754348E+01	6.628083638E+02	7.982435975E+01	0.000000000E+00	-1.000000000E+00
	9000005	1	1	2	0	0	-5.412422007E+02	-3.687949841E+02	-6.006334388E+02	8.886581952E+02	1.000000000E-05	0.000000000E+00	0.000000000E+00

</event>
<event>
	4	1	3.267126300E-02	1.273295000E+03	7.818608000E-03	9.051014000E-02
	1	-1	0	0	501	0	0.000000000E+00	0.000000000E+00	1.846292465E+03	1.846292465E+03	5.040000000E-03	0.000000000E+00	-1.000000000E+00
	-2	-1	0	0	0	501	-0.000000000E+00	-0.000000000E+00	-2.195320378E+02	2.195320378E+02	2.550000000E-03	0.000000000E+00	1.000000000E+00
	-24	1	1	2	0	0	-6.192588031E+02	1.296232772E+02	7.466622646E+02	9.819165570E+02	7.982435975E+01	0.000000000E+00	1.000000000E+00
	9000005	1	1	2	0	0	6.192588031E+02	-1.296232772E+02	8.800981629E+02	1.083907946E+03	1.000000000E-05	0.000000000E+00	0.000000000E+00

</event>
<event>
	4	1	3.267126300E-02	1.381802000E+03	7.818608000E-03	8.967098000E-02
	1	-1	0	0	501	0	0.000000000E+00	0.000000000E+00	2.140548915E+03	2.140548915E+03	5.040000000E-03	0.000000000E+00	-1.000000000E+00
	-2	-1	0	0	0	501	-0.000000000E+00	-0.000000000E+00	-2.230006812E+02	2.230006812E+02	2.550000000E-03	0.000000000E+00	1.000000000E+00
	-24	1	1	2	0	0	6.102911688E+02	-2.132724557E+02	5.563949993E+02	8.566725014E+02	7.982435975E+01	0.000000000E+00	1.000000000E+00
	9000005	1	1	2	0	0	-6.102911688E+02	2.132724557E+02	1.361153234E+03	1.506877095E+03	1.000000000E-05	0.000000000E+00	0.000000000E+00

</event>
<event>
	4	1	3.267126300E-02	1.613181000E+03	7.818608000E-03	8.812491000E-02
	1	-1	0	0	501	0	0.000000000E+00	0.000000000E+00	1.167105331E+03	1.167105331E+03	5.040000000E-03	0.000000000E+00	-1.000000000E+00
	-2	-1	0	0	0	501	-0.000000000E+00	-0.000000000E+00	-5.574371352E+02	5.574371352E+02	2.550000000E-03	0.000000000E+00	1.000000000E+00
	-24	1	1	2	0	0	3.868234004E+02	-5.624894082E+02	7.608667667E+02	1.025337429E+03	7.982435975E+01	0.000000000E+00	-1.000000000E+00
	9000005	1	1	2	0	0	-3.868234004E+02	5.624894082E+02	-1.511985705E+02	6.992050380E+02	1.000000000E-05	0.000000000E+00	0.000000000E+00

</event>
<event>
	4	1	3.267126300E-02	1.456118000E+03	7.818608000E-03	8.914170000E-02
	1	-1	0	0	501	0	0.000000000E+00	0.000000000E+00	1.415845044E+03	1.415845044E+03	5.040000000E-03	0.000000000E+00	-1.000000000E+00
	-2	-1	0	0	0	501	-0.000000000E+00	-0.000000000E+00	-3.743840149E+02	3.743840149E+02	2.550000000E-03	0.000000000E+00	1.000000000E+00
	-24	1	1	2	0	0	-3.632401609E+01	7.124010491E+02	6.874906376E+02	9.939064313E+02	7.982435975E+01	0.000000000E+00	1.000000000E+00
	9000005	1	1	2	0	0	3.632401609E+01	-7.124010491E+02	3.539703911E+02	7.963226273E+02	1.000000000E-05	0.000000000E+00	0.000000000E+00

</event>
<event>
	4	1	3.267126300E-02	1.736754000E+03	7.818608000E-03	8.740675000E-02
	1	-1	0	0	501	0	0.000000000E+00	0.000000000E+00	1.598466578E+03	1.598466578E+03	5.040000000E-03	0.000000000E+00	-1.000000000E+00
	-2	-1	0	0	0	501	-0.000000000E+00	-0.000000000E+00	-4.717514350E+02	4.717514350E+02	2.550000000E-03	0.000000000E+00	1.000000000E+00
	-24	1	1	2	0	0	-2.571669057E+02	-5.450458865E+02	-1.776473237E+02	6.333564050E+02	7.982435975E+01	0.000000000E+00	1.000000000E+00
	9000005	1	1	2	0	0	2.571669057E+02	5.450458865E+02	1.304362466E+03	1.436861608E+03	1.000000000E-05	0.000000000E+00	0.000000000E+00

</event>
<event>
	4	1	3.267126300E-02	1.615999000E+03	7.818608000E-03	8.810779000E-02
	1	-1	0	0	501	0	0.000000000E+00	0.000000000E+00	2.344620740E+03	2.344620740E+03	5.040000000E-03	0.000000000E+00	-1.000000000E+00
	-2	-1	0	0	0	501	-0.000000000E+00	-0.000000000E+00	-2.784515515E+02	2.784515516E+02	2.550000000E-03	0.000000000E+00	1.000000000E+00
	-24	1	1	2	0	0	5.569786464E+02	-3.884069377E+02	1.740518170E+03	1.869989462E+03	7.982435975E+01	0.000000000E+00	-1.000000000E+00
	9000005	1	1	2	0	0	-5.569786464E+02	3.884069377E+02	3.256510189E+02	7.530828294E+02	1.000000000E-05	0.000000000E+00	0.000000000E+00

</event>
<event>
	4	1	3.267126300E-02	4.183377000E+03	7.818608000E-03	7.968542000E-02
	1	-1	0	0	501	0	0.000000000E+00	0.000000000E+00	1.316312852E+03	1.316312852E+03	5.040000000E-03	0.000000000E+00	-1.000000000E+00
	-2	-1	0	0	0	501	-0.000000000E+00	-0.000000000E+00	-3.323800833E+03	3.323800833E+03	2.550000000E-03	0.000000000E+00	1.000000000E+00
	-24	1	1	2	0	0	3.858555442E+01	-1.606530123E+03	4.796835001E+02	1.678956840E+03	7.982435975E+01	0.000000000E+00	-1.000000000E+00
	9000005	1	1	2	0	0	-3.858555442E+01	1.606530123E+03	-2.487171482E+03	2.961156845E+03	1.000000000E-05	0.000000000E+00	0.000000000E+00

</event>
<event>
	4	1	3.267126300E-02	2.945306000E+03	7.818608000E-03	8.259524000E-02
	-2	-1	0	0	0	501	-0.000000000E+00	0.000000000E+00	1.051887008E+03	1.051887008E+03	5.040000000E-03	0.000000000E+00	1.000000000E+00
	1	-1	0	0	501	0	0.000000000E+00	-0.000000000E+00	-2.061729921E+03	2.061729921E+03	2.550000000E-03	0.000000000E+00	-1.000000000E+00
	-24	1	1	2	0	0	6.280944043E+02	-1.012082927E+03	4.082108442E+02	1.261674465E+03	7.982435975E+01	0.000000000E+00	1.000000000E+00
	9000005	1	1	2	0	0	-6.280944043E+02	1.012082927E+03	-1.418053757E+03	1.851942464E+03	1.000000000E-05	0.000000000E+00	0.000000000E+00

</event>
<event>
	4	1	3.267126300E-02	1.972979000E+03	7.818608000E-03	8.619359000E-02
	1	-1	0	0	501	0	0.000000000E+00	0.000000000E+00	3.102009975E+03	3.102009975E+03	5.040000000E-03	0.000000000E+00	-1.000000000E+00
	-2	-1	0	0	0	501	-0.000000000E+00	-0.000000000E+00	-3.137197693E+02	3.137197693E+02	2.550000000E-03	0.000000000E+00	1.000000000E+00
	-24	1	1	2	0	0	5.930367396E+01	-7.773911434E+02	3.546137226E+02	8.602190048E+02	7.982435975E+01	0.000000000E+00	1.000000000E+00
	9000005	1	1	2	0	0	-5.930367396E+01	7.773911434E+02	2.433676483E+03	2.555510740E+03	1.000000000E-05	0.000000000E+00	0.000000000E+00

</event>
<event>
	4	1	3.267126300E-02	1.306652000E+03	7.818608000E-03	9.024307000E-02
	-2	-1	0	0	0	501	-0.000000000E+00	0.000000000E+00	1.463448020E+02	1.463448020E+02	5.040000000E-03	0.000000000E+00	1.000000000E+00
	1	-1	0	0	501	0	0.000000000E+00	-0.000000000E+00	-2.916636693E+03	2.916636693E+03	2.550000000E-03	0.000000000E+00	-1.000000000E+00
	-24	1	1	2	0	0	1.080047134E+02	6.039879533E+02	-8.811006879E+02	1.076650740E+03	7.982435975E+01	0.000000000E+00	-1.000000000E+00
	9000005	1	1	2	0	0	-1.080047134E+02	-6.039879533E+02	-1.889191204E+03	1.986330755E+03	1.000000000E-05	0.000000000E+00	0.000000000E+00

</event>
<event>
	4	1	3.267126300E-02	2.749747000E+03	7.818608000E-03	8.319042000E-02
	-2	-1	0	0	0	501	-0.000000000E+00	0.000000000E+00	1.489127387E+03	1.489127387E+03	5.040000000E-03	0.000000000E+00	1.000000000E+00
	1	-1	0	0	501	0	0.000000000E+00	-0.000000000E+00	-1.269385766E+03	1.269385766E+03	2.550000000E-03	0.000000000E+00	-1.000000000E+00
	-24	1	1	2	0	0	4.671520328E+02	7.619410387E+02	1.156508868E+03	1.463786139E+03	7.982435975E+01	0.000000000E+00	1.000000000E+00
	9000005	1	1	2	0	0	-4.671520328E+02	-7.619410387E+02	-9.367672468E+02	1.294727015E+03	1.000000000E-05	0.000000000E+00	0.000000000E+00

</event>
<event>
	4	1	3.267126300E-02	2.143114000E+03	7.818608000E-03	8.542486000E-02
	-2	-1	0	0	0	501	-0.000000000E+00	0.000000000E+00	5.821433128E+02	5.821433128E+02	5.040000000E-03	0.000000000E+00	1.000000000E+00
	1	-1	0	0	501	0	0.000000000E+00	-0.000000000E+00	-1.972424945E+03	1.972424945E+03	2.550000000E-03	0.000000000E+00	-1.000000000E+00
	-24	1	1	2	0	0	-1.135506379E+02	-1.056769881E+03	-5.482124947E+02	1.198567977E+03	7.982435975E+01	0.000000000E+00	1.000000000E+00
	9000005	1	1	2	0	0	1.135506379E+02	1.056769881E+03	-8.420691374E+02	1.356000280E+03	1.000000000E-05	0.000000000E+00	0.000000000E+00

</event>
<event>
	4	1	3.267126300E-02	1.539753000E+03	7.818608000E-03	8.858439000E-02
	1	-1	0	0	501	0	0.000000000E+00	0.000000000E+00	2.017140453E+03	2.017140453E+03	5.040000000E-03	0.000000000E+00	-1.000000000E+00
	-2	-1	0	0	0	501	-0.000000000E+00	-0.000000000E+00	-2.938368450E+02	2.938368450E+02	2.550000000E-03	0.000000000E+00	1.000000000E+00
	-24	1	1	2	0	0	-6.058881499E+02	-1.974322847E+02	1.506805725E+03	1.637960738E+03	7.982435975E+01	0.000000000E+00	-1.000000000E+00
	9000005	1	1	2	0	0	6.058881499E+02	1.974322847E+02	2.164978831E+02	6.730165604E+02	1.000000000E-05	0.000000000E+00	0.000000000E+00

</event>
<event>
	4	1	3.267126300E-02	1.453697000E+03	7.818608000E-03	8.915841000E-02
	1	-1	0	0	501	0	0.000000000E+00	0.000000000E+00	2.389938833E+03	2.389938833E+03	5.040000000E-03	0.000000000E+00	-1.000000000E+00
	-2	-1	0	0	0	501	-0.000000000E+00	-0.000000000E+00	-2.210554039E+02	2.210554039E+02	2.550000000E-03	0.000000000E+00	1.000000000E+00
	-24	1	1	2	0	0	-1.180846426E+02	-6.437497748E+02	1.646441943E+03	1.773555964E+03	7.982435975E+01	0.000000000E+00	-1.000000000E+00
	9000005	1	1	2	0	0	1.180846426E+02	6.437497748E+02	5.224414858E+02	8.374382732E+02	1.000000000E-05	0.000000000E+00	0.000000000E+00

</event>
<event>
	4	1	3.267126300E-02	1.742039000E+03	7.818608000E-03	8.737744000E-02
	1	-1	0	0	501	0	0.000000000E+00	0.000000000E+00	2.996226836E+03	2.996226836E+03	5.040000000E-03	0.000000000E+00	-1.000000000E+00
	-2	-1	0	0	0	501	-0.000000000E+00	-0.000000000E+00	-2.532102404E+02	2.532102404E+02	2.550000000E-03	0.000000000E+00	1.000000000E+00
	-24	1	1	2	0	0	-4.580029923E+02	-4.480494516E+02	2.469971923E+03	2.552968524E+03	7.982435975E+01	0.000000000E+00	-1.000000000E+00
	9000005	1	1	2	0	0	4.580029923E+02	4.480494516E+02	2.730446724E+02	6.964685529E+02	1.000000000E-05	0.000000000E+00	0.000000000E+00

</event>
<event>
	4	1	3.267126300E-02	1.974211000E+03	7.818608000E-03	8.618773000E-02
	-2	-1	0	0	0	501	-0.000000000E+00	0.000000000E+00	5.843846869E+02	5.843846869E+02	5.040000000E-03	0.000000000E+00	1.000000000E+00
	1	-1	0	0	501	0	0.000000000E+00	-0.000000000E+00	-1.667356625E+03	1.667356625E+03	2.550000000E-03	0.000000000E+00	-1.000000000E+00
	-24	1	1	2	0	0	1.882076376E+02	-7.968899171E+02	-1.167859932E+03	1.428539255E+03	7.982435975E+01	0.000000000E+00	-1.000000000E+00
	9000005	1	1	2	0	0	-1.882076376E+02	7.968899171E+02	8.488799363E+01	8.232020568E+02	1.000000000E-05	0.000000000E+00	0.000000000E+00

</event>
<event>
	4	1	3.267126300E-02	1.631100000E+03	7.818608000E-03	8.801667000E-02
	1	-1	0	0	501	0	0.000000000E+00	0.000000000E+00	2.011095072E+03	2.011095072E+03	5.040000000E-03	0.000000000E+00	-1.000000000E+00
	-2	-1	0	0	0	501	-0.000000000E+00	-0.000000000E+00	-3.307260809E+02	3.307260809E+02	2.550000000E-03	0.000000000E+00	1.000000000E+00
	-24	1	1	2	0	0	1.716918371E+02	-7.419202353E+02	1.253367077E+03	1.468749359E+03	7.982435975E+01	0.000000000E+00	-1.000000000E+00
	9000005	1	1	2	0	0	-1.716918371E+02	7.419202353E+02	4.270019146E+02	8.730717941E+02	1.000000000E-05	0.000000000E+00	0.000000000E+00

</event>
<event>
	6	1	3.267126300E-02	3.188918000E+03	7.818608000E-03	8.191750000E-02
	-1	-1	0	0	0	501	-0.000000000E+00	0.000000000E+00	1.632733268E+03	1.632733268E+03	2.550000000E-03	0.000000000E+00	1.000000000E+00
	2	-1	0	0	501	0	0.000000000E+00	-0.000000000E+00	-1.557081967E+03	1.557081967E+03	5.040000000E-03	0.000000000E+00	-1.000000000E+00
	24	2	1	2	0	0	-8.028803327E+02	-1.319160417E+03	4.305749983E+02	1.605273704E+03	8.190117641E+01	0.000000000E+00	0.000000000E+00
	-11	1	3	3	0	0	-8.031323716E+02	-1.316435958E+03	4.258341707E+02	1.599799981E+03	5.110000000E-04	0.000000000E+00	1.000000000E+00
	12	1	3	3	0	0	2.520389252E-01	-2.724458041E+00	4.740827576E+00	5.473722805E+00	0.000000000E+00	0.000000000E+00	-1.000000000E+00
	9000005	1	1	2	0	0	8.028803327E+02	1.319160417E+03	-3.549236964E+02	1.584541531E+03	1.000000000E-05	0.000000000E+00	0.000000000E+00

</event>
<event>
	4	1	3.267126300E-02	2.347019000E+03	7.818608000E-03	8.459610000E-02
	-2	-1	0	0	0	501	-0.000000000E+00	0.000000000E+00	4.844334673E+02	4.844334674E+02	5.040000000E-03	0.000000000E+00	1.000000000E+00
	1	-1	0	0	501	0	0.000000000E+00	-0.000000000E+00	-2.842751497E+03	2.842751497E+03	2.550000000E-03	0.000000000E+00	-1.000000000E+00
	-24	1	1	2	0	0	-2.695644475E+02	-9.822436689E+02	-3.582140046E+02	1.082661913E+03	7.982435975E+01	0.000000000E+00	1.000000000E+00
	9000005	1	1	2	0	0	2.695644475E+02	9.822436689E+02	-2.000104025E+03	2.244523051E+03	1.000000000E-05	0.000000000E+00	0.000000000E+00

</event>
<event>
	4	1	3.267126300E-02	1.351882000E+03	7.818608000E-03	8.989405000E-02
	1	-1	0	0	501	0	0.000000000E+00	0.000000000E+00	1.550467675E+03	1.550467675E+03	5.040000000E-03	0.000000000E+00	-1.000000000E+00
	-2	-1	0	0	0	501	-0.000000000E+00	-0.000000000E+00	-2.946826928E+02	2.946826928E+02	2.550000000E-03	0.000000000E+00	1.000000000E+00
	-24	1	1	2	0	0	-3.127468107E+02	5.963550104E+02	6.523301040E+02	9.409337697E+02	7.982435975E+01	0.000000000E+00	-1.000000000E+00
	9000005	1	1	2	0	0	3.127468107E+02	-5.963550104E+02	6.034548778E+02	9.042165977E+02	1.000000000E-05	0.000000000E+00	0.000000000E+00

</event>
<event>
	4	1	3.267126300E-02	1.957175000E+03	7.818608000E-03	8.626908000E-02
	1	-1	0	0	501	0	0.000000000E+00	0.000000000E+00	1.699334934E+03	1.699334934E+03	5.040000000E-03	0.000000000E+00	-1.000000000E+00
	-2	-1	0	0	0	501	-0.000000000E+00	-0.000000000E+00	-5.635345061E+02	5.635345061E+02	2.550000000E-03	0.000000000E+00	1.000000000E+00
	-24	1	1	2	0	0	9.398099553E+02	-1.746927915E+01	8.767103230E+02	1.287843487E+03	7.982435975E+01	0.000000000E+00	-1.000000000E+00
	9000005	1	1	2	0	0	-9.398099553E+02	1.746927915E+01	2.590901054E+02	9.750259538E+02	1.000000000E-05	0.000000000E+00	0.000000000E+00

</event>
<event>
	4	1	3.267126300E-02	1.337474000E+03	7.818608000E-03	9.000365000E-02
	1	-1	0	0	501	0	0.000000000E+00	0.000000000E+00	8.016697228E+02	8.016697228E+02	5.040000000E-03	0.000000000E+00	-1.000000000E+00
	-4	-1	0	0	0	501	-0.000000000E+00	-0.000000000E+00	-5.578456448E+02	5.578470905E+02	1.270000000E+00	0.000000000E+00	1.000000000E+00
	-24	1	1	2	0	0	-4.896541919E+02	4.164860348E+02	3.007577452E+02	7.141771451E+02	7.982435975E+01	0.000000000E+00	1.000000000E+00
	9000005	1	1	2	0	0	4.896541919E+02	-4.164860348E+02	-5.693366726E+01	6.453396682E+02	1.000000000E-05	0.000000000E+00	0.000000000E+00

</event>
<event>
	6	1	3.267126300E-02	1.800018000E+03	7.818608000E-03	8.706290000E-02
	-1	-1	0	0	0	501	-0.000000000E+00	0.000000000E+00	2.201116098E+02	2.201116099E+02	2.550000000E-03	0.000000000E+00	1.000000000E+00
	2	-1	0	0	501	0	0.000000000E+00	-0.000000000E+00	-3.680025214E+03	3.680025214E+03	5.040000000E-03	0.000000000E+00	-1.000000000E+00
	24	2	1	2	0	0	-8.747059605E+02	1.670909858E+02	-1.478646904E+03	1.727938018E+03	7.964428597E+01	0.000000000E+00	0.000000000E+00
	-11	1	3	3	0	0	-6.751438114E+02	1.626667354E+02	-1.147020742E+03	1.340871439E+03	5.110000000E-04	0.000000000E+00	1.000000000E+00
	12	1	3	3	0	0	-1.995621492E+02	4.424250339E+00	-3.316261622E+02	3.870665793E+02	0.000000000E+00	0.000000000E+00	-1.000000000E+00
	9000005	1	1	2	0	0	8.747059605E+02	-1.670909858E+02	-1.981266700E+03	2.172198806E+03	1.000000000E-05	0.000000000E+00	0.000000000E+00

</event>
<event>
	4	1	3.267126300E-02	2.020441000E+03	7.818608000E-03	8.597123000E-02
	1	-1	0	0	501	0	0.000000000E+00	0.000000000E+00	1.515367377E+03	1.515367377E+03	5.040000000E-03	0.000000000E+00	-1.000000000E+00
	-2	-1	0	0	0	501	-0.000000000E+00	-0.000000000E+00	-6.734637434E+02	6.734637434E+02	2.550000000E-03	0.000000000E+00	1.000000000E+00
	-24	1	1	2	0	0	-2.738245796E+02	7.558314176E+02	1.081560262E+03	1.349965022E+03	7.982435975E+01	0.000000000E+00	-1.000000000E+00
	9000005	1	1	2	0	0	2.738245796E+02	-7.558314176E+02	-2.396566280E+02	8.388660987E+02	1.000000000E-05	0.000000000E+00	0.000000000E+00

</event>
<event>
	4	1	3.267126300E-02	2.157583000E+03	7.818608000E-03	8.536293000E-02
	-2	-1	0	0	0	501	-0.000000000E+00	0.000000000E+00	7.951638320E+02	7.951638320E+02	5.040000000E-03	0.000000000E+00	1.000000000E+00
	1	-1	0	0	501	0	0.000000000E+00	-0.000000000E+00	-1.463586588E+03	1.463586588E+03	2.550000000E-03	0.000000000E+00	-1.000000000E+00
	-24	1	1	2	0	0	-8.094100636E+02	-2.505391872E+02	-1.031218304E+03	1.337048112E+03	7.982435975E+01	0.000000000E+00	-1.000000000E+00
	9000005	1	1	2	0	0	8.094100636E+02	2.505391872E+02	3.627955477E+02	9.217023081E+02	1.000000000E-05	0.000000000E+00	0.000000000E+00

</event>
<event>
	4	1	3.267126300E-02	1.300323000E+03	7.818608000E-03	9.029309000E-02
	-2	-1	0	0	0	501	-0.000000000E+00	0.000000000E+00	5.003447563E+02	5.003447563E+02	5.040000000E-03	0.000000000E+00	1.000000000E+00
	1	-1	0	0	501	0	0.000000000E+00	-0.000000000E+00	-8.448369072E+02	8.448369072E+02	2.550000000E-03	0.000000000E+00	-1.000000000E+00
	-24	1	1	2	0	0	-8.203692889E+01	-6.311345409E+02	-2.973315796E+02	7.069928310E+02	7.982435975E+01	0.000000000E+00	1.000000000E+00
	9000005	1	1	2	0	0	8.203692889E+01	6.311345409E+02	-4.716057125E+01	6.381888325E+02	1.000000000E-05	0.000000000E+00	0.000000000E+00

</event>
<event>
	4	1	3.267126300E-02	3.371360000E+03	7.818608000E-03	8.144971000E-02
	1	-1	0	0	501	0	0.000000000E+00	0.000000000E+00	1.354270665E+03	1.354270665E+03	5.040000000E-03	0.000000000E+00	-1.000000000E+00
	-2	-1	0	0	0	501	-0.000000000E+00	-0.000000000E+00	-2.098190166E+03	2.098190166E+03	2.550000000E-03	0.000000000E+00	1.000000000E+00
	-24	1	1	2	0	0	1.175454292E+03	-1.163053479E+03	-4.200575165E+01	1.656056339E+03	7.982435975E+01	0.000000000E+00	1.000000000E+00
	9000005	1	1	2	0	0	-1.175454292E+03	1.163053479E+03	-7.019137492E+02	1.796404492E+03	1.000000000E-05	0.000000000E+00	0.000000000E+00

</event>
<event>
	4	1	3.267126300E-02	1.434387000E+03	7.818608000E-03	8.929297000E-02
	1	-1	0	0	501	0	0.000000000E+00	0.000000000E+00	2.457370524E+02	2.457370524E+02	5.040000000E-03	0.000000000E+00	-1.000000000E+00
	-2	-1	0	0	0	501	-0.000000000E+00	-0.000000000E+00	-2.093158554E+03	2.093158554E+03	2.550000000E-03	0.000000000E+00	1.000000000E+00
	-24	1	1	2	0	0	-1.582385049E+02	6.480646174E+02	-5.071631966E+02	8.417919037E+02	7.982435975E+01	0.000000000E+00	1.000000000E+00
	9000005	1	1	2	0	0	1.582385049E+02	-6.480646174E+02	-1.340258305E+03	1.497103703E+03	1.000000000E-05	0.000000000E+00	0.000000000E+00

</event>
<event>
	4	1	3.267126300E-02	1.227743000E+03	7.818608000E-03	9.088913000E-02
	-4	-1	0	0	0	501	-0.000000000E+00	0.000000000E+00	5.434724505E+02	5.434739344E+02	1.010000000E-01	0.000000000E+00	1.000000000E+00
	3	-1	0	0	501	0	0.000000000E+00	-0.000000000E+00	-6.933885106E+02	6.933885179E+02	1.270000000E+00	0.000000000E+00	-1.000000000E+00
	-24	1	1	2	0	0	-5.890679906E+02	1.585009541E+02	-1.147526194E+02	6.258304420E+02	7.982435975E+01	0.000000000E+00	-1.000000000E+00
	9000005	1	1	2	0	0	5.890679906E+02	-1.585009541E+02	-3.516344075E+01	6.110320103E+02	1.000000000E-05	0.000000000E+00	0.000000000E+00

</event>
<event>
	4	1	3.267126300E-02	1.728936000E+03	7.818608000E-03	8.745031000E-02
	1	-1	0	0	501	0	0.000000000E+00	0.000000000E+00	7.224084496E+02	7.224084496E+02	5.040000000E-03	0.000000000E+00	-1.000000000E+00
	-4	-1	0	0	0	501	-0.000000000E+00	-0.000000000E+00	-1.034461917E+03	1.034462696E+03	1.270000000E+00	0.000000000E+00	1.000000000E+00
	-24	1	1	2	0	0	-1.627004361E+02	-8.272091873E+02	2.928260519E+01	8.473345684E+02	7.982435975E+01	0.000000000E+00	-1.000000000E+00
	9000005	1	1	2	0	0	1.627004361E+02	8.272091873E+02	-3.413360721E+02	9.095365774E+02	1.000000000E-05	0.000000000E+00	0.000000000E+00

</event>
<event>
	4	1	3.267126300E-02	1.750433000E+03	7.818608000E-03	8.733112000E-02
	1	-1	0	0	501	0	0.000000000E+00	0.000000000E+00	9.731642175E+02	9.731642175E+02	5.040000000E-03	0.000000000E+00	-1.000000000E+00
	-2	-1	0	0	0	501	-0.000000000E+00	-0.000000000E+00	-7.871272689E+02	7.871272689E+02	2.550000000E-03	0.000000000E+00	1.000000000E+00
	-24	1	1	2	0	0	8.541720747E+02	1.081743869E+02	2.407001360E+02	8.975634323E+02	7.982435975E+01	0.000000000E+00	-1.000000000E+00
	9000005	1	1	2	0	0	-8.541720747E+02	-1.081743869E+02	-5.466318747E+01	8.627280540E+02	1.000000000E-05	0.000000000E+00	0.000000000E+00

</event>
<event>
	4	1	3.267126300E-02	2.385298000E+03	7.818608000E-03	8.445028000E-02
	1	-1	0	0	501	0	0.000000000E+00	0.000000000E+00	1.750531748E+03	1.750531748E+03	5.040000000E-03	0.000000000E+00	-1.000000000E+00
	-2	-1	0	0	0	501	-0.000000000E+00	-0.000000000E+00	-8.125599321E+02	8.125599321E+02	2.550000000E-03	0.000000000E+00	1.000000000E+00
	-24	1	1	2	0	0	-9.769771471E+02	5.841433699E+02	9.186067874E+01	1.144778640E+03	7.982435975E+01	0.000000000E+00	1.000000000E+00
	9000005	1	1	2	0	0	9.769771471E+02	-5.841433699E+02	8.461111374E+02	1.418313040E+03	1.000000000E-05	0.000000000E+00	0.000000000E+00

</event>
<event>
	4	1	3.267126300E-02	1.531348000E+03	7.818608000E-03	8.863870000E-02
	-2	-1	0	0	0	501	-0.000000000E+00	0.000000000E+00	9.552553108E+02	9.552553108E+02	5.040000000E-03	0.000000000E+00	1.000000000E+00
	1	-1	0	0	501	0	0.000000000E+00	-0.000000000E+00	-6.137171245E+02	6.137171245E+02	2.550000000E-03	0.000000000E+00	-1.000000000E+00
	-24	1	1	2	0	0	-4.778899309E+02	-4.485964392E+02	5.725942487E+02	8.739872158E+02	7.982435975E+01	0.000000000E+00	1.000000000E+00
	9000005	1	1	2	0	0	4.778899309E+02	4.485964392E+02	-2.310560624E+02	6.949852195E+02	1.000000000E-05	0.000000000E+00	0.000000000E+00

</event>
<event>
	4	1	3.267126300E-02	2.739565000E+03	7.818608000E-03	8.322280000E-02
	1	-1	0	0	501	0	0.000000000E+00	0.000000000E+00	1.704562160E+03	1.704562160E+03	5.040000000E-03	0.000000000E+00	-1.000000000E+00
	-2	-1	0	0	0	501	-0.000000000E+00	-0.000000000E+00	-1.100754671E+03	1.100754671E+03	2.550000000E-03	0.000000000E+00	1.000000000E+00
	-24	1	1	2	0	0	-6.795244095E+02	1.050443460E+03	-2.660775087E+02	1.281543622E+03	7.982435975E+01	0.000000000E+00	1.000000000E+00
	9000005	1	1	2	0	0	6.795244095E+02	-1.050443460E+03	8.698849969E+02	1.523773209E+03	1.000000000E-05	0.000000000E+00	0.000000000E+00

</event>
<event>
	6	1	3.267126300E-02	1.645713000E+03	7.818608000E-03	8.792946000E-02
	2	-1	0	0	501	0	0.000000000E+00	0.000000000E+00	2.639834498E+03	2.639834498E+03	2.550000000E-03	0.000000000E+00	-1.000000000E+00
	-1	-1	0	0	0	501	-0.000000000E+00	-0.000000000E+00	-2.564907150E+02	2.564907150E+02	5.040000000E-03	0.000000000E+00	1.000000000E+00
	24	2	1	2	0	0	4.888416413E+02	6.316410538E+02	1.523602906E+03	1.722830029E+03	9.402617929E+01	0.000000000E+00	0.000000000E+00
	-11	1	3	3	0	0	4.576988559E+02	6.198849612E+02	1.449145337E+03	1.641270184E+03	5.110000000E-04	0.000000000E+00	1.000000000E+00
	12	1	3	3	0	0	3.114278548E+01	1.175609266E+01	7.445756880E+01	8.155984523E+01	0.000000000E+00	0.000000000E+00	-1.000000000E+00
	9000005	1	1	2	0	0	-4.888416413E+02	-6.316410538E+02	8.597408768E+02	1.173495184E+03	1.000000000E-05	0.000000000E+00	0.000000000E+00

</event>
<event>
	4	1	3.267126300E-02	1.251069000E+03	7.818608000E-03	9.069294000E-02
	3	-1	0	0	501	0	0.000000000E+00	0.000000000E+00	2.298874259E+02	2.298874481E+02	1.010000000E-01	0.000000000E+00	-1.000000000E+00
	-4	-1	0	0	0	501	-0.000000000E+00	-0.000000000E+00	-1.702106018E+03	1.702106491E+03	1.270000000E+00	0.000000000E+00	1.000000000E+00
	-24	1	1	2	0	0	1.359309265E+02	5.994047748E+02	-5.819957599E+02	8.502083825E+02	7.982435975E+01	0.000000000E+00	-1.000000000E+00
	9000005	1	1	2	0	0	-1.359309265E+02	-5.994047748E+02	-8.902228319E+02	1.081785557E+03	1.000000000E-05	0.000000000E+00	0.000000000E+00

</event>
<event>
	4	1	3.267126300E-02	1.388250000E+03	7.818608000E-03	8.962368000E-02
	1	-1	0	0	501	0	0.000000000E+00	0.000000000E+00	6.467866770E+02	6.467866770E+02	5.040000000E-03	0.000000000E+00	-1.000000000E+00
	-2	-1	0	0	0	501	-0.000000000E+00	-0.000000000E+00	-7.449279553E+02	7.449279553E+02	2.550000000E-03	0.000000000E+00	1.000000000E+00
	-24	1	1	2	0	0	-4.233859685E+02	-4.526831972E+02	2.588629823E+02	6.764316132E+02	7.982435975E+01	0.000000000E+00	-1.000000000E+00
	9000005	1	1	2	0	0	4.233859685E+02	4.526831972E+02	-3.570042606E+02	7.152830191E+02	1.000000000E-05	0.000000000E+00	0.000000000E+00

</event>
<event>
	4	1	3.267126300E-02	1.883045000E+03	7.818608000E-03	8.663342000E-02
	-2	-1	0	0	0	501	-0.000000000E+00	0.000000000E+00	6.692981279E+02	6.692981280E+02	5.040000000E-03	0.000000000E+00	1.000000000E+00
	1	-1	0	0	501	0	0.000000000E+00	-0.000000000E+00	-1.324469421E+03	1.324469421E+03	2.550000000E-03	0.000000000E+00	-1.000000000E+00
	-24	1	1	2	0	0	7.904256079E+02	2.583654193E+02	1.354740838E+02	8.463158319E+02	7.982435975E+01	0.000000000E+00	1.000000000E+00
	9000005	1	1	2	0	0	-7.904256079E+02	-2.583654193E+02	-7.906453771E+02	1.147451717E+03	1.000000000E-05	0.000000000E+00	0.000000000E+00

</event>
<event>
	4	1	3.267126300E-02	1.824409000E+03	7.818608000E-03	8.693426000E-02
	1	-1	0	0	501	0	0.000000000E+00	0.000000000E+00	1.191526787E+03	1.191526787E+03	5.040000000E-03	0.000000000E+00	-1.000000000E+00
	-2	-1	0	0	0	501	-0.000000000E+00	-0.000000000E+00	-6.983616620E+02	6.983616620E+02	2.550000000E-03	0.000000000E+00	1.000000000E+00
	-24	1	1	2	0	0	-5.742412724E+02	-7.060400210E+02	2.742289834E+02	9.538443342E+02	7.982435975E+01	0.000000000E+00	-1.000000000E+00
	9000005	1	1	2	0	0	5.742412724E+02	7.060400210E+02	2.189361413E+02	9.360441144E+02	1.000000000E-05	0.000000000E+00	0.000000000E+00

</event>
<event>
	4	1	3.267126300E-02	2.199027000E+03	7.818608000E-03	8.518833000E-02
	1	-1	0	0	501	0	0.000000000E+00	0.000000000E+00	1.566142909E+03	1.566142909E+03	5.040000000E-03	0.000000000E+00	-1.000000000E+00
	-4	-1	0	0	0	501	-0.000000000E+00	-0.000000000E+00	-7.719144960E+02	7.719155407E+02	1.270000000E+00	0.000000000E+00	1.000000000E+00
	-24	1	1	2	0	0	-7.609361894E+02	4.687467520E+02	1.075936498E+03	1.400984895E+03	7.982435975E+01	0.000000000E+00	-1.000000000E+00
	9000005	1	1	2	0	0	7.609361894E+02	-4.687467520E+02	-2.817080843E+02	9.370735546E+02	1.000000000E-05	0.000000000E+00	0.000000000E+00

</event>
<event>
	4	1	3.267126300E-02	1.920590000E+03	7.818608000E-03	8.644675000E-02
	1	-1	0	0	501	0	0.000000000E+00	0.000000000E+00	2.386327835E+03	2.386327835E+03	5.040000000E-03	0.000000000E+00	-1.000000000E+00
	-2	-1	0	0	0	501	-0.000000000E+00	-0.000000000E+00	-3.864376014E+02	3.864376014E+02	2.550000000E-03	0.000000000E+00	1.000000000E+00
	-24	1	1	2	0	0	8.514306391E+02	4.404361905E+02	1.013349626E+03	1.397199901E+03	7.982435975E+01	0.000000000E+00	1.000000000E+00
	9000005	1	1	2	0	0	-8.514306391E+02	-4.404361905E+02	9.865406073E+02	1.375565535E+03	1.000000000E-05	0.000000000E+00	0.000000000E+00

</event>
<event>
	4	1	3.267126300E-02	1.639708000E+03	7.818608000E-03	8.796519000E-02
	1	-1	0	0	501	0	0.000000000E+00	0.000000000E+00	2.204085443E+02	2.204085443E+02	5.040000000E-03	0.000000000E+00	-1.000000000E+00
	-2	-1	0	0	0	501	-0.000000000E+00	-0.000000000E+00	-3.049610669E+03	3.049610669E+03	2.550000000E-03	0.000000000E+00	1.000000000E+00
	-24	1	1	2	0	0	5.042776995E+02	-4.852069345E+02	-5.736063234E+02	9.083600113E+02	7.982435975E+01	0.000000000E+00	-1.000000000E+00
	9000005	1	1	2	0	0	-5.042776995E+02	4.852069345E+02	-2.255595802E+03	2.361659202E+03	1.000000000E-05	0.000000000E+00	0.000000000E+00

</event>
<event>
	4	1	3.267126300E-02	1.565621000E+03	7.818608000E-03	8.841951000E-02
	1	-1	0	0	501	0	0.000000000E+00	0.000000000E+00	3.735198495E+02	3.735198495E+02	5.040000000E-03	0.000000000E+00	-1.000000000E+00
	-2	-1	0	0	0	501	-0.000000000E+00	-0.000000000E+00	-1.640587919E+03	1.640587919E+03	2.550000000E-03	0.000000000E+00	1.000000000E+00
	-24	1	1	2	0	0	-2.978065013E+02	6.577359878E+02	-2.528946418E+02	7.691768133E+02	7.982435975E+01	0.000000000E+00	-1.000000000E+00
	9000005	1	1	2	0	0	2.978065013E+02	-6.577359878E+02	-1.014173428E+03	1.244930955E+03	1.000000000E-05	0.000000000E+00	0.000000000E+00

</event>
<event>
	4	1	3.267126300E-02	1.422468000E+03	7.818608000E-03	8.937713000E-02
	-2	-1	0	0	0	501	-0.000000000E+00	0.000000000E+00	1.147735059E+03	1.147735059E+03	5.040000000E-03	0.000000000E+00	1.000000000E+00
	1	-1	0	0	501	0	0.000000000E+00	-0.000000000E+00	-4.407411857E+02	4.407411857E+02	2.550000000E-03	0.000000000E+00	-1.000000000E+00
	-24	1	1	2	0	0	6.287716446E+02	2.568431689E+02	5.816912011E+02	8.978077613E+02	7.982435975E+01	0.000000000E+00	1.000000000E+00
	9000005	1	1	2	0	0	-6.287716446E+02	-2.568431689E+02	1.253026723E+02	6.906684836E+02	1.000000000E-05	0.000000000E+00	0.000000000E+00

</event>
<event>
	4	1	3.267126300E-02	2.154229000E+03	7.818608000E-03	8.537724000E-02
	-2	-1	0	0	0	501	-0.000000000E+00	0.000000000E+00	7.273111260E+02	7.273111260E+02	5.040000000E-03	0.000000000E+00	1.000000000E+00
	1	-1	0	0	501	0	0.000000000E+00	-0.000000000E+00	-1.595157945E+03	1.595157945E+03	2.550000000E-03	0.000000000E+00	-1.000000000E+00
	-24	1	1	2	0	0	8.930297251E+02	2.263382234E+02	1.640542539E+02	9.391574990E+02	7.982435975E+01	0.000000000E+00	1.000000000E+00
	9000005	1	1	2	0	0	-8.930297251E+02	-2.263382234E+02	-1.031901073E+03	1.383311572E+03	1.000000000E-05	0.000000000E+00	0.000000000E+00

</event>
<event>
	4	1	3.267126300E-02	1.534673000E+03	7.818608000E-03	8.861718000E-02
	-2	-1	0	0	0	501	-0.000000000E+00	0.000000000E+00	1.035098553E+03	1.035098553E+03	5.040000000E-03	0.000000000E+00	1.000000000E+00
	1	-1	0	0	501	0	0.000000000E+00	-0.000000000E+00	-5.688399472E+02	5.688399472E+02	2.550000000E-03	0.000000000E+00	-1.000000000E+00
	-24	1	1	2	0	0	-2.062795831E+02	-7.365942491E+02	2.103574894E+02	7.973359116E+02	7.982435975E+01	0.000000000E+00	1.000000000E+00
	9000005	1	1	2	0	0	2.062795831E+02	7.365942491E+02	2.559011161E+02	8.066025883E+02	1.000000000E-05	0.000000000E+00	0.000000000E+00

</event>
<event>
	4	1	3.267126300E-02	1.836683000E+03	7.818608000E-03	8.687031000E-02
	1	-1	0	0	501	0	0.000000000E+00	0.000000000E+00	5.153865704E+02	5.153865704E+02	5.040000000E-03	0.000000000E+00	-1.000000000E+00
	-2	-1	0	0	0	501	-0.000000000E+00	-0.000000000E+00	-1.636347213E+03	1.636347213E+03	2.550000000E-03	0.000000000E+00	1.000000000E+00
	-24	1	1	2	0	0	-5.001659644E+02	-7.486311493E+02	-3.601382051E+02	9.729779262E+02	7.982435975E+01	0.000000000E+00	1.000000000E+00
	9000005	1	1	2	0	0	5.001659644E+02	7.486311493E+02	-7.608224379E+02	1.178755858E+03	1.000000000E-05	0.000000000E+00	0.000000000E+00

</event>
<event>
	4	1	3.267126300E-02	1.972598000E+03	7.818608000E-03	8.619540000E-02
	1	-1	0	0	501	0	0.000000000E+00	0.000000000E+00	1.842021083E+03	1.842021083E+03	5.040000000E-03	0.000000000E+00	-1.000000000E+00
	-2	-1	0	0	0	501	-0.000000000E+00	-0.000000000E+00	-5.281080250E+02	5.281080250E+02	2.550000000E-03	0.000000000E+00	1.000000000E+00
	-24	1	1	2	0	0	-5.825941159E+02	1.588539523E+02	-2.764990459E+02	6.689350737E+02	7.982435975E+01	0.000000000E+00	1.000000000E+00
	9000005	1	1	2	0	0	5.825941159E+02	-1.588539523E+02	1.590412104E+03	1.701194034E+03	1.000000000E-05	0.000000000E+00	0.000000000E+00

</event>
<event>
	4	1	3.267126300E-02	1.615834000E+03	7.818608000E-03	8.810879000E-02
	1	-1	0	0	501	0	0.000000000E+00	0.000000000E+00	1.930461008E+03	1.930461008E+03	5.040000000E-03	0.000000000E+00	-1.000000000E+00
	-2	-1	0	0	0	501	-0.000000000E+00	-0.000000000E+00	-3.381212510E+02	3.381212510E+02	2.550000000E-03	0.000000000E+00	1.000000000E+00
	-24	1	1	2	0	0	-8.004369141E+02	9.372936653E+01	7.869368481E+02	1.129214762E+03	7.982435975E+01	0.000000000E+00	-1.000000000E+00
	9000005	1	1	2	0	0	8.004369141E+02	-9.372936653E+01	8.054029094E+02	1.139367497E+03	1.000000000E-05	0.000000000E+00	0.000000000E+00

</event>
<event>
	4	1	3.267126300E-02	2.165136000E+03	7.818608000E-03	8.533081000E-02
	-2	-1	0	0	0	501	-0.000000000E+00	0.000000000E+00	4.613555251E+02	4.613555251E+02	5.040000000E-03	0.000000000E+00	1.000000000E+00
	1	-1	0	0	501	0	0.000000000E+00	-0.000000000E+00	-2.540239263E+03	2.540239263E+03	2.550000000E-03	0.000000000E+00	-1.000000000E+00
	-24	1	1	2	0	0	-8.915258216E+02	2.404741602E+02	-2.613921233E+02	9.629869588E+02	7.982435975E+01	0.000000000E+00	-1.000000000E+00
	9000005	1	1	2	0	0	8.915258216E+02	-2.404741602E+02	-1.817491614E+03	2.038607829E+03	1.000000000E-05	0.000000000E+00	0.000000000E+00

</event>
<event>
	4	1	3.267126300E-02	1.829194000E+03	7.818608000E-03	8.690927000E-02
	-2	-1	0	0	0	501	-0.000000000E+00	0.000000000E+00	6.194280575E+02	6.194280575E+02	5.040000000E-03	0.000000000E+00	1.000000000E+00
	1	-1	0	0	501	0	0.000000000E+00	-0.000000000E+00	-1.350419097E+03	1.350419097E+03	2.550000000E-03	0.000000000E+00	-1.000000000E+00
	-24	1	1	2	0	0	6.873244798E+02	5.935414219E+02	-2.663350754E+02	9.497434710E+02	7.982435975E+01	0.000000000E+00	1.000000000E+00
	9000005	1	1	2	0	0	-6.873244798E+02	-5.935414219E+02	-4.646559641E+02	1.020103683E+03	1.000000000E-05	0.000000000E+00	0.000000000E+00

</event>
<event>
	4	1	3.267126300E-02	1.764699000E+03	7.818608000E-03	8.725301000E-02
	1	-1	0	0	501	0	0.000000000E+00	0.000000000E+00	4.695163479E+02	4.695163480E+02	5.040000000E-03	0.000000000E+00	-1.000000000E+00
	-2	-1	0	0	0	501	-0.000000000E+00	-0.000000000E+00	-1.658175994E+03	1.658175994E+03	2.550000000E-03	0.000000000E+00	1.000000000E+00
	-24	1	1	2	0	0	6.130218050E+02	-6.025689593E+02	-3.652831859E+02	9.373840294E+02	7.982435975E+01	0.000000000E+00	-1.000000000E+00
	9000005	1	1	2	0	0	-6.130218050E+02	6.025689593E+02	-8.233764606E+02	1.190308313E+03	1.000000000E-05	0.000000000E+00	0.000000000E+00

</event>
<event>
	4	1	3.267126300E-02	2.077323000E+03	7.818608000E-03	8.571299000E-02
	-2	-1	0	0	0	501	-0.000000000E+00	0.000000000E+00	4.654118552E+02	4.654118552E+02	5.040000000E-03	0.000000000E+00	1.000000000E+00
	1	-1	0	0	501	0	0.000000000E+00	-0.000000000E+00	-2.317985002E+03	2.317985002E+03	2.550000000E-03	0.000000000E+00	-1.000000000E+00
	-24	1	1	2	0	0	-1.483542654E+00	-1.019606065E+03	-1.182006551E+03	1.563045151E+03	7.982435975E+01	0.000000000E+00	-1.000000000E+00
	9000005	1	1	2	0	0	1.483542654E+00	1.019606065E+03	-6.705665957E+02	1.220351706E+03	1.000000000E-05	0.000000000E+00	0.000000000E+00

</event>
<event>
	4	1	3.267126300E-02	1.402382000E+03	7.818608000E-03	8.952096000E-02
	-2	-1	0	0	0	501	-0.000000000E+00	0.000000000E+00	1.965564340E+02	1.965564340E+02	5.040000000E-03	0.000000000E+00	1.000000000E+00
	1	-1	0	0	501	0	0.000000000E+00	-0.000000000E+00	-2.501412719E+03	2.501412719E+03	2.550000000E-03	0.000000000E+00	-1.000000000E+00
	-24	1	1	2	0	0	1.486319496E+02	6.703513597E+02	-9.051344129E+02	1.138904138E+03	7.982435975E+01	0.000000000E+00	1.000000000E+00
	9000005	1	1	2	0	0	-1.486319496E+02	-6.703513597E+02	-1.399721873E+03	1.559065015E+03	1.000000000E-05	0.000000000E+00	0.000000000E+00

</event>
<event>
	4	1	3.267126300E-02	1.866130000E+03	7.818608000E-03	8.671902000E-02
	1	-1	0	0	501	0	0.000000000E+00	0.000000000E+00	1.916262129E+03	1.916262129E+03	5.040000000E-03	0.000000000E+00	-1.000000000E+00
	-2	-1	0	0	0	501	-0.000000000E+00	-0.000000000E+00	-4.543274980E+02	4.543274980E+02	2.550000000E-03	0.000000000E+00	1.000000000E+00
	-24	1	1	2	0	0	7.034147865E+02	4.957167002E+02	1.184832762E+03	1.466536058E+03	7.982435975E+01	0.000000000E+00	-1.000000000E+00
	9000005	1	1	2	0	0	-7.034147865E+02	-4.957167002E+02	2.771018691E+02	9.040535684E+02	1.000000000E-05	0.000000000E+00	0.000000000E+00

</event>
<event>
	4	1	3.267126300E-02	1.356748000E+03	7.818608000E-03	8.985735000E-02
	-2	-1	0	0	0	501	-0.000000000E+00	0.000000000E+00	1.936657887E+02	1.936657887E+02	5.040000000E-03	0.000000000E+00	1.000000000E+00
	1	-1	0	0	501	0	0.000000000E+00	-0.000000000E+00	-2.376215179E+03	2.376215179E+03	2.550000000E-03	0.000000000E+00	-1.000000000E+00
	-24	1	1	2	0	0	6.355421047E+02	-1.512499990E+02	-1.424333239E+03	1.569040291E+03	7.982435975E+01	0.000000000E+00	-1.000000000E+00
	9000005	1	1	2	0	0	-6.355421047E+02	1.512499990E+02	-7.582161510E+02	1.000840677E+03	1.000000000E-05	0.000000000E+00	0.000000000E+00

</event>
<event>
	4	1	3.267126300E-02	1.350299000E+03	7.818608000E-03	8.990602000E-02
	-2	-1	0	0	0	501	-0.000000000E+00	0.000000000E+00	3.168196705E+02	3.168196705E+02	5.040000000E-03	0.000000000E+00	1.000000000E+00
	1	-1	0	0	501	0	0.000000000E+00	-0.000000000E+00	-1.438758241E+03	1.438758241E+03	2.550000000E-03	0.000000000E+00	-1.000000000E+00
	-24	1	1	2	0	0	1.990747948E+02	6.070957222E+02	-8.370420425E+02	1.056033759E+03	7.982435975E+01	0.000000000E+00	1.000000000E+00
	9000005	1	1	2	0	0	-1.990747948E+02	-6.070957222E+02	-2.848965275E+02	6.995441524E+02	1.000000000E-05	0.000000000E+00	0.000000000E+00

</event>
<event>
	4	1	3.267126300E-02	3.829674000E+03	7.818608000E-03	8.039817000E-02
	1	-1	0	0	501	0	0.000000000E+00	0.000000000E+00	1.529764313E+03	1.529764313E+03	5.040000000E-03	0.000000000E+00	-1.000000000E+00
	-2	-1	0	0	0	501	-0.000000000E+00	-0.000000000E+00	-2.396840006E+03	2.396840006E+03	2.550000000E-03	0.000000000E+00	1.000000000E+00
	-24	1	1	2	0	0	2.607954348E+02	7.215220915E+02	1.364168552E+03	1.567142672E+03	7.982435975E+01	0.000000000E+00	-1.000000000E+00
	9000005	1	1	2	0	0	-2.607954348E+02	-7.215220915E+02	-2.231244245E+03	2.359461647E+03	1.000000000E-05	0.000000000E+00	0.000000000E+00

</event>
<event>
	4	1	3.267126300E-02	1.461372000E+03	7.818608000E-03	8.910554000E-02
	-2	-1	0	0	0	501	-0.000000000E+00	0.000000000E+00	9.855360638E+02	9.855360638E+02	5.040000000E-03	0.000000000E+00	1.000000000E+00
	1	-1	0	0	501	0	0.000000000E+00	-0.000000000E+00	-5.417379170E+02	5.417379171E+02	2.550000000E-03	0.000000000E+00	-1.000000000E+00
	-24	1	1	2	0	0	-7.010526659E+02	-1.099781036E+02	3.947674899E+02	8.159554664E+02	7.982435975E+01	0.000000000E+00	1.000000000E+00
	9000005	1	1	2	0	0	7.010526659E+02	1.099781036E+02	4.903065687E+01	7.113185144E+02	1.000000000E-05	0.000000000E+00	0.000000000E+00

</event>
<event>
	4	1	3.267126300E-02	2.575739000E+03	7.818608000E-03	8.376489000E-02
	1	-1	0	0	501	0	0.000000000E+00	0.000000000E+00	1.833654688E+03	1.833654688E+03	5.040000000E-03	0.000000000E+00	-1.000000000E+00
	-2	-1	0	0	0	501	-0.000000000E+00	-0.000000000E+00	-9.045367594E+02	9.045367594E+02	2.550000000E-03	0.000000000E+00	1.000000000E+00
	-24	1	1	2	0	0	8.609072751E+02	-3.938017020E+02	1.391269656E+03	1.684708967E+03	7.982435975E+01	0.000000000E+00	-1.000000000E+00
	9000005	1	1	2	0	0	-8.609072751E+02	3.938017020E+02	-4.621517281E+02	1.053482481E+03	1.000000000E-05	0.000000000E+00	0.000000000E+00

</event>
<event>
	4	1	3.267126300E-02	1.406943000E+03	7.818608000E-03	8.948808000E-02
	1	-1	0	0	501	0	0.000000000E+00	0.000000000E+00	1.772077590E+03	1.772077590E+03	5.040000000E-03	0.000000000E+00	-1.000000000E+00
	-2	-1	0	0	0	501	-0.000000000E+00	-0.000000000E+00	-2.792608276E+02	2.792608276E+02	2.550000000E-03	0.000000000E+00	1.000000000E+00
	-24	1	1	2	0	0	-1.361334218E+02	6.464376252E+02	4.060167557E+02	7.795097473E+02	7.982435975E+01	0.000000000E+00	1.000000000E+00
	9000005	1	1	2	0	0	1.361334218E+02	-6.464376252E+02	1.086800006E+03	1.271828670E+03	1.000000000E-05	0.000000000E+00	0.000000000E+00

</event>
<event>
	4	1	3.267126300E-02	1.473452000E+03	7.818608000E-03	8.902301000E-02
	-2	-1	0	0	0	501	-0.000000000E+00	0.000000000E+00	6.074582492E+02	6.074582492E+02	5.040000000E-03	0.000000000E+00	1.000000000E+00
	1	-1	0	0	501	0	0.000000000E+00	-0.000000000E+00	-8.935024671E+02	8.935024671E+02	2.550000000E-03	0.000000000E+00	-1.000000000E+00
	-24	1	1	2	0	0	6.316953308E+02	5.984650428E+01	2.335532720E+02	6.808374654E+02	7.982435975E+01	0.000000000E+00	1.000000000E+00
	9000005	1	1	2	0	0	-6.316953308E+02	-5.984650428E+01	-5.195974899E+02	8.201232509E+02	1.000000000E-05	0.000000000E+00	0.000000000E+00

</event>
<event>
	4	1	3.267126300E-02	1.911815000E+03	7.818608000E-03	8.648998000E-02
	1	-1	0	0	501	0	0.000000000E+00	0.000000000E+00	2.832214362E+03	2.832214362E+03	5.040000000E-03	0.000000000E+00	-1.000000000E+00
	-2	-1	0	0	0	501	-0.000000000E+00	-0.000000000E+00	-3.226306830E+02	3.226306831E+02	2.550000000E-03	0.000000000E+00	1.000000000E+00
	-24	1	1	2	0	0	1.259740954E+02	-8.106410729E+02	4.526650539E+02	9.403648235E+02	7.982435975E+01	0.000000000E+00	1.000000000E+00
	9000005	1	1	2	0	0	-1.259740954E+02	8.106410729E+02	2.056918625E+03	2.214480222E+03	1.000000000E-05	0.000000000E+00	0.000000000E+00

</event>
<event>
	4	1	3.267126300E-02	1.906464000E+03	7.818608000E-03	8.651646000E-02
	-2	-1	0	0	0	501	-0.000000000E+00	0.000000000E+00	9.732015207E+02	9.732015207E+02	5.040000000E-03	0.000000000E+00	1.000000000E+00
	1	-1	0	0	501	0	0.000000000E+00	-0.000000000E+00	-9.336718519E+02	9.336718519E+02	2.550000000E-03	0.000000000E+00	-1.000000000E+00
	-24	1	1	2	0	0	6.255495060E+02	-6.183857781E+02	-3.432586148E+02	9.475819543E+02	7.982435975E+01	0.000000000E+00	-1.000000000E+00
	9000005	1	1	2	0	0	-6.255495060E+02	6.183857781E+02	3.827882837E+02	9.592914183E+02	1.000000000E-05	0.000000000E+00	0.000000000E+00

</event>
<event>
	4	1	3.267126300E-02	1.526092000E+03	7.818608000E-03	8.867285000E-02
	-2	-1	0	0	0	501	-0.000000000E+00	0.000000000E+00	3.339867181E+02	3.339867181E+02	5.040000000E-03	0.000000000E+00	1.000000000E+00
	1	-1	0	0	501	0	0.000000000E+00	-0.000000000E+00	-1.743299907E+03	1.743299907E+03	2.550000000E-03	0.000000000E+00	-1.000000000E+00
	-24	1	1	2	0	0	-7.456324312E+02	9.908243929E+01	-8.634002985E+02	1.147875018E+03	7.982435975E+01	0.000000000E+00	1.000000000E+00
	9000005	1	1	2	0	0	7.456324312E+02	-9.908243929E+01	-5.459128907E+02	9.294116077E+02	1.000000000E-05	0.000000000E+00	0.000000000E+00

</event>
<event>
	4	1	3.267126300E-02	1.358556000E+03	7.818608000E-03	8.984376000E-02
	1	-1	0	0	501	0	0.000000000E+00	0.000000000E+00	1.242207798E+03	1.242207798E+03	5.040000000E-03	0.000000000E+00	-1.000000000E+00
	-2	-1	0	0	0	501	-0.000000000E+00	-0.000000000E+00	-3.714505367E+02	3.714505367E+02	2.550000000E-03	0.000000000E+00	1.000000000E+00
	-24	1	1	2	0	0	-6.492923122E+02	-1.648846586E+02	5.524737769E+02	8.719900572E+02	7.982435975E+01	0.000000000E+00	-1.000000000E+00
	9000005	1	1	2	0	0	6.492923122E+02	1.648846586E+02	3.182834842E+02	7.416682773E+02	1.000000000E-05	0.000000000E+00	0.000000000E+00

</event>
<event>
	4	1	3.267126300E-02	2.301582000E+03	7.818608000E-03	8.477297000E-02
	1	-1	0	0	501	0	0.000000000E+00	0.000000000E+00	1.111755391E+03	1.111755391E+03	5.040000000E-03	0.000000000E+00	-1.000000000E+00
	-2	-1	0	0	0	501	-0.000000000E+00	-0.000000000E+00	-1.191197561E+03	1.191197561E+03	2.550000000E-03	0.000000000E+00	1.000000000E+00
	-24	1	1	2	0	0	8.146523702E+01	7.247107923E+02	8.491823670E+02	1.122196479E+03	7.982435975E+01	0.000000000E+00	-1.000000000E+00
	9000005	1	1	2	0	0	-8.146523702E+01	-7.247107923E+02	-9.286245368E+02	1.180756473E+03	1.000000000E-05	0.000000000E+00	0.000000000E+00

</event>
<event>
	4	1	3.267126300E-02	1.991424000E+03	7.818608000E-03	8.610641000E-02
	-2	-1	0	0	0	501	-0.000000000E+00	0.000000000E+00	7.675323816E+02	7.675323816E+02	5.040000000E-03	0.000000000E+00	1.000000000E+00
	1	-1	0	0	501	0	0.000000000E+00	-0.000000000E+00	-1.291727565E+03	1.291727565E+03	2.550000000E-03	0.000000000E+00	-1.000000000E+00
	-24	1	1	2	0	0	5.539756261E+02	-3.403473226E+02	-1.040155384E+03	1.229235716E+03	7.982435975E+01	0.000000000E+00	-1.000000000E+00
	9000005	1	1	2	0	0	-5.539756261E+02	3.403473226E+02	5.159602007E+02	8.300242304E+02	1.000000000E-05	0.000000000E+00	0.000000000E+00

</event>
<event>
	4	1	3.267126300E-02	2.038929000E+03	7.818608000E-03	8.588633000E-02
	-2	-1	0	0	0	501	-0.000000000E+00	0.000000000E+00	6.750392165E+02	6.750392165E+02	5.040000000E-03	0.000000000E+00	1.000000000E+00
	1	-1	0	0	501	0	0.000000000E+00	-0.000000000E+00	-1.539626554E+03	1.539626554E+03	2.550000000E-03	0.000000000E+00	-1.000000000E+00
	-24	1	1	2	0	0	6.164490432E+02	-3.282418161E+02	3.713915795E+02	7.950193371E+02	7.982435975E+01	0.000000000E+00	1.000000000E+00
	9000005	1	1	2	0	0	-6.164490432E+02	3.282418161E+02	-1.235978917E+03	1.419646433E+03	1.000000000E-05	0.000000000E+00	0.000000000E+00

</event>
<event>
	4	1	3.267126300E-02	1.672894000E+03	7.818608000E-03	8.776977000E-02
	-2	-1	0	0	0	501	-0.000000000E+00	0.000000000E+00	8.686192649E+02	8.686192649E+02	5.040000000E-03	0.000000000E+00	1.000000000E+00
	1	-1	0	0	501	0	0.000000000E+00	-0.000000000E+00	-8.054666207E+02	8.054666207E+02	2.550000000E-03	0.000000000E+00	-1.000000000E+00
	-24	1	1	2	0	0	8.136495761E+02	-1.456578307E+02	1.467068527E+02	8.432891944E+02	7.982435975E+01	0.000000000E+00	1.000000000E+00
	9000005	1	1	2	0	0	-8.136495761E+02	1.456578307E+02	-8.355420860E+01	8.307966912E+02	1.000000000E-05	0.000000000E+00	0.000000000E+00

</event>
<event>
	4	1	3.267126300E-02	1.381986000E+03	7.818608000E-03	8.966962000E-02
	1	-1	0	0	501	0	0.000000000E+00	0.000000000E+00	2.963545485E+03	2.963545485E+03	5.040000000E-03	0.000000000E+00	-1.000000000E+00
	-2	-1	0	0	0	501	-0.000000000E+00	-0.000000000E+00	-1.611149307E+02	1.611149308E+02	2.550000000E-03	0.000000000E+00	1.000000000E+00
	-24	1	1	2	0	0	3.450133739E+02	-5.446296913E+02	8.583981362E+02	1.076510575E+03	7.982435975E+01	0.000000000E+00	1.000000000E+00
	9000005	1	1	2	0	0	-3.450133739E+02	5.446296913E+02	1.944032418E+03	2.048149841E+03	1.000000000E-05	0.000000000E+00	0.000000000E+00

</event>
<event>
	4	1	3.267126300E-02	2.022322000E+03	7.818608000E-03	8.596255000E-02
	1	-1	0	0	501	0	0.000000000E+00	0.000000000E+00	7.619083417E+02	7.619083417E+02	5.040000000E-03	0.000000000E+00	-1.000000000E+00
	-2	-1	0	0	0	501	-0.000000000E+00	-0.000000000E+00	-1.341954619E+03	1.341954619E+03	2.550000000E-03	0.000000000E+00	1.000000000E+00
	-24	1	1	2	0	0	3.782207758E+02	-7.973374518E+02	-8.006193479E+02	1.194219928E+03	7.982435975E+01	0.000000000E+00	1.000000000E+00
	9000005	1	1	2	0	0	-3.782207758E+02	7.973374518E+02	2.205730708E+02	9.096430327E+02	1.000000000E-05	0.000000000E+00	0.000000000E+00

</event>
<event>
	4	1	3.267126300E-02	1.544042000E+03	7.818608000E-03	8.855682000E-02
	1	-1	0	0	501	0	0.000000000E+00	0.000000000E+00	6.572155997E+02	6.572155997E+02	5.040000000E-03	0.000000000E+00	-1.000000000E+00
	-2	-1	0	0	0	501	-0.000000000E+00	-0.000000000E+00	-9.068815301E+02	9.068815301E+02	2.550000000E-03	0.000000000E+00	1.000000000E+00
	-24	1	1	2	0	0	4.222115897E+02	-4.921557416E+02	-5.457155643E+02	8.512680577E+02	7.982435975E+01	0.000000000E+00	1.000000000E+00
	9000005	1	1	2	0	0	-4.222115897E+02	4.921557416E+02	2.960496339E+02	7.128290722E+02	1.000000000E-05	0.000000000E+00	0.000000000E+00

</event>
<event>
	4	1	3.267126300E-02	1.721800000E+03	7.818608000E-03	8.749028000E-02
	1	-1	0	0	501	0	0.000000000E+00	0.000000000E+00	1.725909510E+03	1.725909510E+03	5.040000000E-03	0.000000000E+00	-1.000000000E+00
	-2	-1	0	0	0	501	-0.000000000E+00	-0.000000000E+00	-4.294248402E+02	4.294248402E+02	2.550000000E-03	0.000000000E+00	1.000000000E+00
	-24	1	1	2	0	0	-6.925059737E+02	2.957126781E+02	1.167210793E+03	1.391317173E+03	7.982435975E+01	0.000000000E+00	-1.000000000E+00
	9000005	1	1	2	0	0	6.925059737E+02	-2.957126781E+02	1.292738763E+02	7.640171770E+02	1.000000000E-05	0.000000000E+00	0.000000000E+00

</event>
# nevents = 1001
</LesHouchesEvents>
